 Entering Gaussian System, Link 0=g16
 Input=tpm3cl-h-scan.114514
 Output=tpm3cl-h-scan.log
 Initial command:
 /home/aced/g16/l1.exe "/mnt/114/scratch/tpm3cl-h-scanfiles/Gau-220858.inp" -scrdir="/mnt/114/scratch/tpm3cl-h-scanfiles/"
 Entering Link 1 = /home/aced/g16/l1.exe PID=    220860.
  
 Copyright (c) 1988,1990,1992,1993,1995,1998,2003,2009,2016,
            Gaussian, Inc.  All Rights Reserved.
  
 This is part of the Gaussian(R) 16 program.  It is based on
 the Gaussian(R) 09 system (copyright 2009, Gaussian, Inc.),
 the Gaussian(R) 03 system (copyright 2003, Gaussian, Inc.),
 the Gaussian(R) 98 system (copyright 1998, Gaussian, Inc.),
 the Gaussian(R) 94 system (copyright 1995, Gaussian, Inc.),
 the Gaussian 92(TM) system (copyright 1992, Gaussian, Inc.),
 the Gaussian 90(TM) system (copyright 1990, Gaussian, Inc.),
 the Gaussian 88(TM) system (copyright 1988, Gaussian, Inc.),
 the Gaussian 86(TM) system (copyright 1986, Carnegie Mellon
 University), and the Gaussian 82(TM) system (copyright 1983,
 Carnegie Mellon University). Gaussian is a federally registered
 trademark of Gaussian, Inc.
  
 This software contains proprietary and confidential information,
 including trade secrets, belonging to Gaussian, Inc.
  
 This software is provided under written license and may be
 used, copied, transmitted, or stored only in accord with that
 written license.
  
 The following legend is applicable only to US Government
 contracts under FAR:
  
                    RESTRICTED RIGHTS LEGEND
  
 Use, reproduction and disclosure by the US Government is
 subject to restrictions as set forth in subparagraphs (a)
 and (c) of the Commercial Computer Software - Restricted
 Rights clause in FAR 52.227-19.
  
 Gaussian, Inc.
 340 Quinnipiac St., Bldg. 40, Wallingford CT 06492
  
  
 ---------------------------------------------------------------
 Warning -- This program may not be used in any manner that
 competes with the business of Gaussian, Inc. or will provide
 assistance to any competitor of Gaussian, Inc.  The licensee
 of this program is prohibited from giving any competitor of
 Gaussian, Inc. access to this program.  By using this program,
 the user acknowledges that Gaussian, Inc. is engaged in the
 business of creating and licensing software in the field of
 computational chemistry and represents and warrants to the
 licensee that it is not a competitor of Gaussian, Inc. and that
 it will not use this program in any manner prohibited above.
 ---------------------------------------------------------------
  

 Cite this work as:
 Gaussian 16, Revision A.03,
 M. J. Frisch, G. W. Trucks, H. B. Schlegel, G. E. Scuseria, 
 M. A. Robb, J. R. Cheeseman, G. Scalmani, V. Barone, 
 G. A. Petersson, H. Nakatsuji, X. Li, M. Caricato, A. V. Marenich, 
 J. Bloino, B. G. Janesko, R. Gomperts, B. Mennucci, H. P. Hratchian, 
 J. V. Ortiz, A. F. Izmaylov, J. L. Sonnenberg, D. Williams-Young, 
 F. Ding, F. Lipparini, F. Egidi, J. Goings, B. Peng, A. Petrone, 
 T. Henderson, D. Ranasinghe, V. G. Zakrzewski, J. Gao, N. Rega, 
 G. Zheng, W. Liang, M. Hada, M. Ehara, K. Toyota, R. Fukuda, 
 J. Hasegawa, M. Ishida, T. Nakajima, Y. Honda, O. Kitao, H. Nakai, 
 T. Vreven, K. Throssell, J. A. Montgomery, Jr., J. E. Peralta, 
 F. Ogliaro, M. J. Bearpark, J. J. Heyd, E. N. Brothers, K. N. Kudin, 
 V. N. Staroverov, T. A. Keith, R. Kobayashi, J. Normand, 
 K. Raghavachari, A. P. Rendell, J. C. Burant, S. S. Iyengar, 
 J. Tomasi, M. Cossi, J. M. Millam, M. Klene, C. Adamo, R. Cammi, 
 J. W. Ochterski, R. L. Martin, K. Morokuma, O. Farkas, 
 J. B. Foresman, and D. J. Fox, Gaussian, Inc., Wallingford CT, 2016.
 
 ******************************************
 Gaussian 16:  ES64L-G16RevA.03 25-Dec-2016
                18-May-2026 
 ******************************************
 %nprocshared=8
 Will use up to    8 processors via shared memory.
 %mem=20GB
 %chk=tpm3cl-h-scan.chk
 ------------------------------------------------------
 #p opt=modredundant 6-31g(d,p) geom=connectivity m062x
 ------------------------------------------------------
 1/18=120,19=15,26=3,38=1,57=2/1,3;
 2/9=110,12=2,17=6,18=5,40=1/2;
 3/5=1,6=6,7=101,11=2,25=1,30=1,71=1,74=-55/1,2,3;
 4//1;
 5/5=2,38=5/2;
 6/7=2,8=2,9=2,10=2,28=1/1;
 7//1,2,3,16;
 1/18=20,19=15,26=3/3(2);
 2/9=110/2;
 99//99;
 2/9=110/2;
 3/5=1,6=6,7=101,11=2,25=1,30=1,71=1,74=-55/1,2,3;
 4/5=5,16=3,69=1/1;
 5/5=2,38=5/2;
 7//1,2,3,16;
 1/18=20,19=15,26=3/3(-5);
 2/9=110/2;
 6/7=2,8=2,9=2,10=2,19=2,28=1/1;
 99/9=1/99;
 Leave Link    1 at Mon May 18 03:51:05 2026, MaxMem=  2684354560 cpu:               0.1 elap:               0.0
 (Enter /home/aced/g16/l101.exe)
 -------------------
 Title Card Required
 -------------------
 Symbolic Z-matrix:
 Charge =  1 Multiplicity = 1
 C                    -4.49288  -0.37231  -0.08524 
 C                    -5.57227  -1.28876   0.0745 
 C                    -5.33842  -2.71418   0.3433 
 C                    -4.02092  -3.22678   0.4182 
 C                    -6.39112  -3.63532   0.52062 
 C                    -6.14682  -4.97469   0.74733 
 C                    -4.8336   -5.46382   0.80682 
 C                    -3.7789   -4.59293   0.64444 
 C                    -4.75313   0.97526  -0.40612 
 C                    -6.04885   1.42822  -0.53521 
 C                    -7.11897   0.54492  -0.35188 
 C                    -6.87974  -0.78206  -0.06152 
 C                    -2.9688   -2.27077   0.27099 
 C                    -3.1726   -0.92915   0.0696 
 N                    -1.60161  -2.46368   0.32899 
 C                    -0.95226  -1.29664   0.18498 
 N                    -1.89885  -0.3421    0.029 
 C                    -1.60167   1.04982  -0.15196 
 C                    -1.82942   1.92411   0.90247 
 C                    -1.54269   3.27338   0.72926 
 C                    -1.02163   3.74625  -0.48635 
 C                    -0.79878   2.83277  -1.52724 
 C                    -1.0914    1.48152  -1.36552 
 C                     0.49099  -1.16547   0.17853 
 C                     1.1638   -0.05947   0.7284 
 C                     2.54059  -0.00521   0.74335 
 C                     3.31893  -1.05509   0.20019 
 C                     2.6385   -2.16423  -0.35567 
 C                     1.26157  -2.21292  -0.35842 
 N                     4.69211  -0.99834   0.21026 
 C                     5.48247  -1.82982  -0.64679 
 C                     5.39893  -0.10648   1.07954 
 C                     6.3607    0.7508    0.54648 
 C                     7.07342   1.59448   1.3919 
 C                     6.82363   1.59097   2.76225 
 C                     5.86364   0.73044   3.29014 
 C                     5.15646  -0.12702   2.45393 
 C                     6.49896  -2.61011  -0.09722 
 C                     7.29098  -3.39315  -0.93043 
 C                     7.06633  -3.4061   -2.30507 
 C                     6.05128  -2.62245  -2.84951 
 C                     5.26383  -1.82522  -2.02535 
 Cl                   -0.16157   3.35764  -3.0391 
 Cl                   -0.66475   5.4099   -0.69316 
 Cl                   -1.83821   4.35111   2.04067 
 H                    -7.42029  -3.30272   0.48366 
 H                    -6.98098  -5.6547    0.87989 
 H                    -4.65031  -6.51786   0.98198 
 H                    -2.76026  -4.96788   0.69243 
 H                    -3.93842   1.66661  -0.5722 
 H                    -6.23395   2.46699  -0.7848 
 H                    -8.1393    0.89836  -0.4507 
 H                    -7.72945  -1.44239   0.05241 
 H                    -1.22161  -3.15884   0.50005 
 H                    -2.23555   1.56927   1.84337 
 H                    -0.91879   0.78596  -2.17856 
 H                     0.60736   0.76181   1.16588 
 H                     3.03506   0.85674   1.17369 
 H                     3.20589  -2.98217  -0.78181 
 H                     0.77418  -3.06979  -0.81651 
 H                     6.54708   0.74255  -0.52288 
 H                     7.82293   2.25963   0.97685 
 H                     7.38004   2.25179   3.41783 
 H                     5.6755    0.71359   4.35836 
 H                     4.41956  -0.81555   2.85686 
 H                     6.66511  -2.58917   0.97531 
 H                     8.08318  -3.99809  -0.50265 
 H                     7.68491  -4.0194   -2.95108 
 H                     5.88202  -2.61759  -3.92101 
 H                     4.4829   -1.19508  -2.44074 
 
 The following ModRedundant input section has been read:
 B      15      54 S  17 0.0250                                                
 
 ITRead=  0  0  0  0  0  0  0  0  0  0  0  0  0  0  0  0  0  0  0  0
 ITRead=  0  0  0  0  0  0  0  0  0  0  0  0  0  0  0  0  0  0  0  0
 ITRead=  0  0  0  0  0  0  0  0  0  0  0  0  0  0  0  0  0  0  0  0
 ITRead=  0  0  0  0  0  0  0  0  0  0
 MicOpt= -1 -1 -1 -1 -1 -1 -1 -1 -1 -1 -1 -1 -1 -1 -1 -1 -1 -1 -1 -1
 MicOpt= -1 -1 -1 -1 -1 -1 -1 -1 -1 -1 -1 -1 -1 -1 -1 -1 -1 -1 -1 -1
 MicOpt= -1 -1 -1 -1 -1 -1 -1 -1 -1 -1 -1 -1 -1 -1 -1 -1 -1 -1 -1 -1
 MicOpt= -1 -1 -1 -1 -1 -1 -1 -1 -1 -1
 NAtoms=     70 NQM=       70 NQMF=       0 NMMI=      0 NMMIF=      0
                NMic=       0 NMicF=      0.
                    Isotopes and Nuclear Properties:
 (Nuclear quadrupole moments (NQMom) in fm**2, nuclear magnetic moments (NMagM)
  in nuclear magnetons)

  Atom         1           2           3           4           5           6           7           8           9          10
 IAtWgt=          12          12          12          12          12          12          12          12          12          12
 AtmWgt=  12.0000000  12.0000000  12.0000000  12.0000000  12.0000000  12.0000000  12.0000000  12.0000000  12.0000000  12.0000000
 NucSpn=           0           0           0           0           0           0           0           0           0           0
 AtZEff=  -0.0000000  -0.0000000  -0.0000000  -0.0000000  -0.0000000  -0.0000000  -0.0000000  -0.0000000  -0.0000000  -0.0000000
 NQMom=    0.0000000   0.0000000   0.0000000   0.0000000   0.0000000   0.0000000   0.0000000   0.0000000   0.0000000   0.0000000
 NMagM=    0.0000000   0.0000000   0.0000000   0.0000000   0.0000000   0.0000000   0.0000000   0.0000000   0.0000000   0.0000000
 AtZNuc=   6.0000000   6.0000000   6.0000000   6.0000000   6.0000000   6.0000000   6.0000000   6.0000000   6.0000000   6.0000000

  Atom        11          12          13          14          15          16          17          18          19          20
 IAtWgt=          12          12          12          12          14          12          14          12          12          12
 AtmWgt=  12.0000000  12.0000000  12.0000000  12.0000000  14.0030740  12.0000000  14.0030740  12.0000000  12.0000000  12.0000000
 NucSpn=           0           0           0           0           2           0           2           0           0           0
 AtZEff=  -0.0000000  -0.0000000  -0.0000000  -0.0000000  -0.0000000  -0.0000000  -0.0000000  -0.0000000  -0.0000000  -0.0000000
 NQMom=    0.0000000   0.0000000   0.0000000   0.0000000   2.0440000   0.0000000   2.0440000   0.0000000   0.0000000   0.0000000
 NMagM=    0.0000000   0.0000000   0.0000000   0.0000000   0.4037610   0.0000000   0.4037610   0.0000000   0.0000000   0.0000000
 AtZNuc=   6.0000000   6.0000000   6.0000000   6.0000000   7.0000000   6.0000000   7.0000000   6.0000000   6.0000000   6.0000000

  Atom        21          22          23          24          25          26          27          28          29          30
 IAtWgt=          12          12          12          12          12          12          12          12          12          14
 AtmWgt=  12.0000000  12.0000000  12.0000000  12.0000000  12.0000000  12.0000000  12.0000000  12.0000000  12.0000000  14.0030740
 NucSpn=           0           0           0           0           0           0           0           0           0           2
 AtZEff=  -0.0000000  -0.0000000  -0.0000000  -0.0000000  -0.0000000  -0.0000000  -0.0000000  -0.0000000  -0.0000000  -0.0000000
 NQMom=    0.0000000   0.0000000   0.0000000   0.0000000   0.0000000   0.0000000   0.0000000   0.0000000   0.0000000   2.0440000
 NMagM=    0.0000000   0.0000000   0.0000000   0.0000000   0.0000000   0.0000000   0.0000000   0.0000000   0.0000000   0.4037610
 AtZNuc=   6.0000000   6.0000000   6.0000000   6.0000000   6.0000000   6.0000000   6.0000000   6.0000000   6.0000000   7.0000000

  Atom        31          32          33          34          35          36          37          38          39          40
 IAtWgt=          12          12          12          12          12          12          12          12          12          12
 AtmWgt=  12.0000000  12.0000000  12.0000000  12.0000000  12.0000000  12.0000000  12.0000000  12.0000000  12.0000000  12.0000000
 NucSpn=           0           0           0           0           0           0           0           0           0           0
 AtZEff=  -0.0000000  -0.0000000  -0.0000000  -0.0000000  -0.0000000  -0.0000000  -0.0000000  -0.0000000  -0.0000000  -0.0000000
 NQMom=    0.0000000   0.0000000   0.0000000   0.0000000   0.0000000   0.0000000   0.0000000   0.0000000   0.0000000   0.0000000
 NMagM=    0.0000000   0.0000000   0.0000000   0.0000000   0.0000000   0.0000000   0.0000000   0.0000000   0.0000000   0.0000000
 AtZNuc=   6.0000000   6.0000000   6.0000000   6.0000000   6.0000000   6.0000000   6.0000000   6.0000000   6.0000000   6.0000000

  Atom        41          42          43          44          45          46          47          48          49          50
 IAtWgt=          12          12          35          35          35           1           1           1           1           1
 AtmWgt=  12.0000000  12.0000000  34.9688527  34.9688527  34.9688527   1.0078250   1.0078250   1.0078250   1.0078250   1.0078250
 NucSpn=           0           0           3           3           3           1           1           1           1           1
 AtZEff=  -0.0000000  -0.0000000  -0.0000000  -0.0000000  -0.0000000  -0.0000000  -0.0000000  -0.0000000  -0.0000000  -0.0000000
 NQMom=    0.0000000   0.0000000  -8.1650000  -8.1650000  -8.1650000   0.0000000   0.0000000   0.0000000   0.0000000   0.0000000
 NMagM=    0.0000000   0.0000000   0.8218740   0.8218740   0.8218740   2.7928460   2.7928460   2.7928460   2.7928460   2.7928460
 AtZNuc=   6.0000000   6.0000000  17.0000000  17.0000000  17.0000000   1.0000000   1.0000000   1.0000000   1.0000000   1.0000000

  Atom        51          52          53          54          55          56          57          58          59          60
 IAtWgt=           1           1           1           1           1           1           1           1           1           1
 AtmWgt=   1.0078250   1.0078250   1.0078250   1.0078250   1.0078250   1.0078250   1.0078250   1.0078250   1.0078250   1.0078250
 NucSpn=           1           1           1           1           1           1           1           1           1           1
 AtZEff=  -0.0000000  -0.0000000  -0.0000000  -0.0000000  -0.0000000  -0.0000000  -0.0000000  -0.0000000  -0.0000000  -0.0000000
 NQMom=    0.0000000   0.0000000   0.0000000   0.0000000   0.0000000   0.0000000   0.0000000   0.0000000   0.0000000   0.0000000
 NMagM=    2.7928460   2.7928460   2.7928460   2.7928460   2.7928460   2.7928460   2.7928460   2.7928460   2.7928460   2.7928460
 AtZNuc=   1.0000000   1.0000000   1.0000000   1.0000000   1.0000000   1.0000000   1.0000000   1.0000000   1.0000000   1.0000000

  Atom        61          62          63          64          65          66          67          68          69          70
 IAtWgt=           1           1           1           1           1           1           1           1           1           1
 AtmWgt=   1.0078250   1.0078250   1.0078250   1.0078250   1.0078250   1.0078250   1.0078250   1.0078250   1.0078250   1.0078250
 NucSpn=           1           1           1           1           1           1           1           1           1           1
 AtZEff=  -0.0000000  -0.0000000  -0.0000000  -0.0000000  -0.0000000  -0.0000000  -0.0000000  -0.0000000  -0.0000000  -0.0000000
 NQMom=    0.0000000   0.0000000   0.0000000   0.0000000   0.0000000   0.0000000   0.0000000   0.0000000   0.0000000   0.0000000
 NMagM=    2.7928460   2.7928460   2.7928460   2.7928460   2.7928460   2.7928460   2.7928460   2.7928460   2.7928460   2.7928460
 AtZNuc=   1.0000000   1.0000000   1.0000000   1.0000000   1.0000000   1.0000000   1.0000000   1.0000000   1.0000000   1.0000000
 Leave Link  101 at Mon May 18 03:51:05 2026, MaxMem=  2684354560 cpu:               0.9 elap:               0.1
 (Enter /home/aced/g16/l103.exe)

 GradGradGradGradGradGradGradGradGradGradGradGradGradGradGradGradGradGrad
 Berny optimization.
 Initialization pass.
                           ----------------------------
                           !    Initial Parameters    !
                           ! (Angstroms and Degrees)  !
 --------------------------                            --------------------------
 ! Name  Definition              Value          Derivative Info.                !
 --------------------------------------------------------------------------------
 ! R1    R(1,2)                  1.4249         estimate D2E/DX2                !
 ! R2    R(1,9)                  1.4095         estimate D2E/DX2                !
 ! R3    R(1,14)                 1.4412         estimate D2E/DX2                !
 ! R4    R(2,3)                  1.4693         estimate D2E/DX2                !
 ! R5    R(2,12)                 1.4088         estimate D2E/DX2                !
 ! R6    R(3,4)                  1.4157         estimate D2E/DX2                !
 ! R7    R(3,5)                  1.41           estimate D2E/DX2                !
 ! R8    R(4,8)                  1.4057         estimate D2E/DX2                !
 ! R9    R(4,13)                 1.4292         estimate D2E/DX2                !
 ! R10   R(5,6)                  1.3802         estimate D2E/DX2                !
 ! R11   R(5,46)                 1.0822         estimate D2E/DX2                !
 ! R12   R(6,7)                  1.4026         estimate D2E/DX2                !
 ! R13   R(6,47)                 1.0843         estimate D2E/DX2                !
 ! R14   R(7,8)                  1.3774         estimate D2E/DX2                !
 ! R15   R(7,48)                 1.0841         estimate D2E/DX2                !
 ! R16   R(8,49)                 1.0865         estimate D2E/DX2                !
 ! R17   R(9,10)                 1.3787         estimate D2E/DX2                !
 ! R18   R(9,50)                 1.0813         estimate D2E/DX2                !
 ! R19   R(10,11)                1.3996         estimate D2E/DX2                !
 ! R20   R(10,51)                1.0843         estimate D2E/DX2                !
 ! R21   R(11,12)                1.3793         estimate D2E/DX2                !
 ! R22   R(11,52)                1.0843         estimate D2E/DX2                !
 ! R23   R(12,53)                1.0821         estimate D2E/DX2                !
 ! R24   R(13,14)                1.3719         estimate D2E/DX2                !
 ! R25   R(13,15)                1.3819         estimate D2E/DX2                !
 ! R26   R(14,17)                1.4031         estimate D2E/DX2                !
 ! R27   R(15,16)                1.3433         estimate D2E/DX2                !
 ! R28   R(15,54)                0.8105         Scan                            !
 ! R29   R(16,17)                1.3533         estimate D2E/DX2                !
 ! R30   R(16,24)                1.4492         estimate D2E/DX2                !
 ! R31   R(17,18)                1.4348         estimate D2E/DX2                !
 ! R32   R(18,19)                1.3886         estimate D2E/DX2                !
 ! R33   R(18,23)                1.3855         estimate D2E/DX2                !
 ! R34   R(19,20)                1.3902         estimate D2E/DX2                !
 ! R35   R(19,55)                1.0845         estimate D2E/DX2                !
 ! R36   R(20,21)                1.4046         estimate D2E/DX2                !
 ! R37   R(20,45)                1.723          estimate D2E/DX2                !
 ! R38   R(21,22)                1.4027         estimate D2E/DX2                !
 ! R39   R(21,44)                1.714          estimate D2E/DX2                !
 ! R40   R(22,23)                1.392          estimate D2E/DX2                !
 ! R41   R(22,43)                1.7226         estimate D2E/DX2                !
 ! R42   R(23,56)                1.0838         estimate D2E/DX2                !
 ! R43   R(24,25)                1.4065         estimate D2E/DX2                !
 ! R44   R(24,29)                1.4069         estimate D2E/DX2                !
 ! R45   R(25,26)                1.3779         estimate D2E/DX2                !
 ! R46   R(25,57)                1.0842         estimate D2E/DX2                !
 ! R47   R(26,27)                1.4153         estimate D2E/DX2                !
 ! R48   R(26,58)                1.0829         estimate D2E/DX2                !
 ! R49   R(27,28)                1.415          estimate D2E/DX2                !
 ! R50   R(27,30)                1.3744         estimate D2E/DX2                !
 ! R51   R(28,29)                1.3778         estimate D2E/DX2                !
 ! R52   R(28,59)                1.0828         estimate D2E/DX2                !
 ! R53   R(29,60)                1.087          estimate D2E/DX2                !
 ! R54   R(30,31)                1.432          estimate D2E/DX2                !
 ! R55   R(30,32)                1.432          estimate D2E/DX2                !
 ! R56   R(31,38)                1.3943         estimate D2E/DX2                !
 ! R57   R(31,42)                1.3958         estimate D2E/DX2                !
 ! R58   R(32,33)                1.3943         estimate D2E/DX2                !
 ! R59   R(32,37)                1.3958         estimate D2E/DX2                !
 ! R60   R(33,34)                1.3909         estimate D2E/DX2                !
 ! R61   R(33,61)                1.0855         estimate D2E/DX2                !
 ! R62   R(34,35)                1.3929         estimate D2E/DX2                !
 ! R63   R(34,62)                1.0847         estimate D2E/DX2                !
 ! R64   R(35,36)                1.3931         estimate D2E/DX2                !
 ! R65   R(35,63)                1.0845         estimate D2E/DX2                !
 ! R66   R(36,37)                1.3909         estimate D2E/DX2                !
 ! R67   R(36,64)                1.0848         estimate D2E/DX2                !
 ! R68   R(37,65)                1.086          estimate D2E/DX2                !
 ! R69   R(38,39)                1.3909         estimate D2E/DX2                !
 ! R70   R(38,66)                1.0855         estimate D2E/DX2                !
 ! R71   R(39,40)                1.3929         estimate D2E/DX2                !
 ! R72   R(39,67)                1.0847         estimate D2E/DX2                !
 ! R73   R(40,41)                1.3931         estimate D2E/DX2                !
 ! R74   R(40,68)                1.0845         estimate D2E/DX2                !
 ! R75   R(41,42)                1.391          estimate D2E/DX2                !
 ! R76   R(41,69)                1.0848         estimate D2E/DX2                !
 ! R77   R(42,70)                1.086          estimate D2E/DX2                !
 ! A1    A(2,1,9)              120.0363         estimate D2E/DX2                !
 ! A2    A(2,1,14)             115.683          estimate D2E/DX2                !
 ! A3    A(9,1,14)             124.2629         estimate D2E/DX2                !
 ! A4    A(1,2,3)              121.5937         estimate D2E/DX2                !
 ! A5    A(1,2,12)             117.4434         estimate D2E/DX2                !
 ! A6    A(3,2,12)             120.9512         estimate D2E/DX2                !
 ! A7    A(2,3,4)              120.6028         estimate D2E/DX2                !
 ! A8    A(2,3,5)              122.5456         estimate D2E/DX2                !
 ! A9    A(4,3,5)              116.8466         estimate D2E/DX2                !
 ! A10   A(3,4,8)              121.3743         estimate D2E/DX2                !
 ! A11   A(3,4,13)             115.9411         estimate D2E/DX2                !
 ! A12   A(8,4,13)             122.6778         estimate D2E/DX2                !
 ! A13   A(3,5,6)              121.4979         estimate D2E/DX2                !
 ! A14   A(3,5,46)             120.326          estimate D2E/DX2                !
 ! A15   A(6,5,46)             118.176          estimate D2E/DX2                !
 ! A16   A(5,6,7)              120.7366         estimate D2E/DX2                !
 ! A17   A(5,6,47)             119.503          estimate D2E/DX2                !
 ! A18   A(7,6,47)             119.7604         estimate D2E/DX2                !
 ! A19   A(6,7,8)              119.4344         estimate D2E/DX2                !
 ! A20   A(6,7,48)             120.2783         estimate D2E/DX2                !
 ! A21   A(8,7,48)             120.2871         estimate D2E/DX2                !
 ! A22   A(4,8,7)              120.1068         estimate D2E/DX2                !
 ! A23   A(4,8,49)             120.2578         estimate D2E/DX2                !
 ! A24   A(7,8,49)             119.6354         estimate D2E/DX2                !
 ! A25   A(1,9,10)             120.595          estimate D2E/DX2                !
 ! A26   A(1,9,50)             120.4713         estimate D2E/DX2                !
 ! A27   A(10,9,50)            118.925          estimate D2E/DX2                !
 ! A28   A(9,10,11)            119.9311         estimate D2E/DX2                !
 ! A29   A(9,10,51)            119.7861         estimate D2E/DX2                !
 ! A30   A(11,10,51)           120.2817         estimate D2E/DX2                !
 ! A31   A(10,11,12)           120.1409         estimate D2E/DX2                !
 ! A32   A(10,11,52)           120.1188         estimate D2E/DX2                !
 ! A33   A(12,11,52)           119.7352         estimate D2E/DX2                !
 ! A34   A(2,12,11)            121.8246         estimate D2E/DX2                !
 ! A35   A(2,12,53)            119.9409         estimate D2E/DX2                !
 ! A36   A(11,12,53)           118.2316         estimate D2E/DX2                !
 ! A37   A(4,13,14)            124.0506         estimate D2E/DX2                !
 ! A38   A(4,13,15)            129.0948         estimate D2E/DX2                !
 ! A39   A(14,13,15)           106.8366         estimate D2E/DX2                !
 ! A40   A(1,14,13)            121.9852         estimate D2E/DX2                !
 ! A41   A(1,14,17)            131.8247         estimate D2E/DX2                !
 ! A42   A(13,14,17)           106.1739         estimate D2E/DX2                !
 ! A43   A(13,15,16)           110.6388         estimate D2E/DX2                !
 ! A44   A(13,15,54)           126.3292         estimate D2E/DX2                !
 ! A45   A(16,15,54)           122.7615         estimate D2E/DX2                !
 ! A46   A(15,16,17)           106.6795         estimate D2E/DX2                !
 ! A47   A(15,16,24)           124.0931         estimate D2E/DX2                !
 ! A48   A(17,16,24)           129.2142         estimate D2E/DX2                !
 ! A49   A(14,17,16)           109.6655         estimate D2E/DX2                !
 ! A50   A(14,17,18)           126.6974         estimate D2E/DX2                !
 ! A51   A(16,17,18)           123.6368         estimate D2E/DX2                !
 ! A52   A(17,18,19)           118.757          estimate D2E/DX2                !
 ! A53   A(17,18,23)           119.2786         estimate D2E/DX2                !
 ! A54   A(19,18,23)           121.9636         estimate D2E/DX2                !
 ! A55   A(18,19,20)           118.8583         estimate D2E/DX2                !
 ! A56   A(18,19,55)           120.9462         estimate D2E/DX2                !
 ! A57   A(20,19,55)           120.191          estimate D2E/DX2                !
 ! A58   A(19,20,21)           120.7364         estimate D2E/DX2                !
 ! A59   A(19,20,45)           118.481          estimate D2E/DX2                !
 ! A60   A(21,20,45)           120.7824         estimate D2E/DX2                !
 ! A61   A(20,21,22)           118.811          estimate D2E/DX2                !
 ! A62   A(20,21,44)           120.5599         estimate D2E/DX2                !
 ! A63   A(22,21,44)           120.6291         estimate D2E/DX2                !
 ! A64   A(21,22,23)           120.8347         estimate D2E/DX2                !
 ! A65   A(21,22,43)           120.7722         estimate D2E/DX2                !
 ! A66   A(23,22,43)           118.3927         estimate D2E/DX2                !
 ! A67   A(18,23,22)           118.7938         estimate D2E/DX2                !
 ! A68   A(18,23,56)           121.0497         estimate D2E/DX2                !
 ! A69   A(22,23,56)           120.1565         estimate D2E/DX2                !
 ! A70   A(16,24,25)           123.0806         estimate D2E/DX2                !
 ! A71   A(16,24,29)           118.6714         estimate D2E/DX2                !
 ! A72   A(25,24,29)           118.2072         estimate D2E/DX2                !
 ! A73   A(24,25,26)           120.8748         estimate D2E/DX2                !
 ! A74   A(24,25,57)           120.524          estimate D2E/DX2                !
 ! A75   A(26,25,57)           118.5927         estimate D2E/DX2                !
 ! A76   A(25,26,27)           121.0713         estimate D2E/DX2                !
 ! A77   A(25,26,58)           119.4654         estimate D2E/DX2                !
 ! A78   A(27,26,58)           119.4628         estimate D2E/DX2                !
 ! A79   A(26,27,28)           117.8906         estimate D2E/DX2                !
 ! A80   A(26,27,30)           121.0651         estimate D2E/DX2                !
 ! A81   A(28,27,30)           121.0442         estimate D2E/DX2                !
 ! A82   A(27,28,29)           120.601          estimate D2E/DX2                !
 ! A83   A(27,28,59)           119.6519         estimate D2E/DX2                !
 ! A84   A(29,28,59)           119.7471         estimate D2E/DX2                !
 ! A85   A(24,29,28)           121.3533         estimate D2E/DX2                !
 ! A86   A(24,29,60)           120.1418         estimate D2E/DX2                !
 ! A87   A(28,29,60)           118.476          estimate D2E/DX2                !
 ! A88   A(27,30,31)           121.5394         estimate D2E/DX2                !
 ! A89   A(27,30,32)           121.5554         estimate D2E/DX2                !
 ! A90   A(31,30,32)           116.9052         estimate D2E/DX2                !
 ! A91   A(30,31,38)           119.4333         estimate D2E/DX2                !
 ! A92   A(30,31,42)           120.1821         estimate D2E/DX2                !
 ! A93   A(38,31,42)           120.3527         estimate D2E/DX2                !
 ! A94   A(30,32,33)           119.4271         estimate D2E/DX2                !
 ! A95   A(30,32,37)           120.187          estimate D2E/DX2                !
 ! A96   A(33,32,37)           120.3539         estimate D2E/DX2                !
 ! A97   A(32,33,34)           119.6058         estimate D2E/DX2                !
 ! A98   A(32,33,61)           119.3659         estimate D2E/DX2                !
 ! A99   A(34,33,61)           121.0262         estimate D2E/DX2                !
 ! A100  A(33,34,35)           120.3028         estimate D2E/DX2                !
 ! A101  A(33,34,62)           119.5697         estimate D2E/DX2                !
 ! A102  A(35,34,62)           120.1269         estimate D2E/DX2                !
 ! A103  A(34,35,36)           119.8622         estimate D2E/DX2                !
 ! A104  A(34,35,63)           120.0778         estimate D2E/DX2                !
 ! A105  A(36,35,63)           120.0587         estimate D2E/DX2                !
 ! A106  A(35,36,37)           120.2216         estimate D2E/DX2                !
 ! A107  A(35,36,64)           120.1489         estimate D2E/DX2                !
 ! A108  A(37,36,64)           119.6213         estimate D2E/DX2                !
 ! A109  A(32,37,36)           119.6433         estimate D2E/DX2                !
 ! A110  A(32,37,65)           119.5076         estimate D2E/DX2                !
 ! A111  A(36,37,65)           120.8488         estimate D2E/DX2                !
 ! A112  A(31,38,39)           119.6073         estimate D2E/DX2                !
 ! A113  A(31,38,66)           119.3553         estimate D2E/DX2                !
 ! A114  A(39,38,66)           121.035          estimate D2E/DX2                !
 ! A115  A(38,39,40)           120.3022         estimate D2E/DX2                !
 ! A116  A(38,39,67)           119.5774         estimate D2E/DX2                !
 ! A117  A(40,39,67)           120.1199         estimate D2E/DX2                !
 ! A118  A(39,40,41)           119.8643         estimate D2E/DX2                !
 ! A119  A(39,40,68)           120.0743         estimate D2E/DX2                !
 ! A120  A(41,40,68)           120.0599         estimate D2E/DX2                !
 ! A121  A(40,41,42)           120.219          estimate D2E/DX2                !
 ! A122  A(40,41,69)           120.1464         estimate D2E/DX2                !
 ! A123  A(42,41,69)           119.626          estimate D2E/DX2                !
 ! A124  A(31,42,41)           119.6443         estimate D2E/DX2                !
 ! A125  A(31,42,70)           119.4922         estimate D2E/DX2                !
 ! A126  A(41,42,70)           120.863          estimate D2E/DX2                !
 ! D1    D(9,1,2,3)            176.9366         estimate D2E/DX2                !
 ! D2    D(9,1,2,12)            -1.8278         estimate D2E/DX2                !
 ! D3    D(14,1,2,3)            -1.5936         estimate D2E/DX2                !
 ! D4    D(14,1,2,12)          179.6421         estimate D2E/DX2                !
 ! D5    D(2,1,9,10)             1.6462         estimate D2E/DX2                !
 ! D6    D(2,1,9,50)          -177.2689         estimate D2E/DX2                !
 ! D7    D(14,1,9,10)         -179.9565         estimate D2E/DX2                !
 ! D8    D(14,1,9,50)            1.1283         estimate D2E/DX2                !
 ! D9    D(2,1,14,13)            4.0802         estimate D2E/DX2                !
 ! D10   D(2,1,14,17)         -177.6029         estimate D2E/DX2                !
 ! D11   D(9,1,14,13)         -174.3801         estimate D2E/DX2                !
 ! D12   D(9,1,14,17)            3.9367         estimate D2E/DX2                !
 ! D13   D(1,2,3,4)             -1.613          estimate D2E/DX2                !
 ! D14   D(1,2,3,5)            179.2218         estimate D2E/DX2                !
 ! D15   D(12,2,3,4)           177.1083         estimate D2E/DX2                !
 ! D16   D(12,2,3,5)            -2.0569         estimate D2E/DX2                !
 ! D17   D(1,2,12,11)            0.6673         estimate D2E/DX2                !
 ! D18   D(1,2,12,53)         -179.962          estimate D2E/DX2                !
 ! D19   D(3,2,12,11)         -178.1054         estimate D2E/DX2                !
 ! D20   D(3,2,12,53)            1.2653         estimate D2E/DX2                !
 ! D21   D(2,3,4,8)           -178.5432         estimate D2E/DX2                !
 ! D22   D(2,3,4,13)             2.3826         estimate D2E/DX2                !
 ! D23   D(5,3,4,8)              0.6682         estimate D2E/DX2                !
 ! D24   D(5,3,4,13)          -178.4061         estimate D2E/DX2                !
 ! D25   D(2,3,5,6)            178.7659         estimate D2E/DX2                !
 ! D26   D(2,3,5,46)            -1.3768         estimate D2E/DX2                !
 ! D27   D(4,3,5,6)             -0.4289         estimate D2E/DX2                !
 ! D28   D(4,3,5,46)           179.4284         estimate D2E/DX2                !
 ! D29   D(3,4,8,7)             -0.3942         estimate D2E/DX2                !
 ! D30   D(3,4,8,49)           179.6177         estimate D2E/DX2                !
 ! D31   D(13,4,8,7)           178.6168         estimate D2E/DX2                !
 ! D32   D(13,4,8,49)           -1.3713         estimate D2E/DX2                !
 ! D33   D(3,4,13,14)            0.0797         estimate D2E/DX2                !
 ! D34   D(3,4,13,15)          178.3268         estimate D2E/DX2                !
 ! D35   D(8,4,13,14)         -178.9813         estimate D2E/DX2                !
 ! D36   D(8,4,13,15)           -0.7342         estimate D2E/DX2                !
 ! D37   D(3,5,6,7)             -0.0863         estimate D2E/DX2                !
 ! D38   D(3,5,6,47)           179.9603         estimate D2E/DX2                !
 ! D39   D(46,5,6,7)          -179.9466         estimate D2E/DX2                !
 ! D40   D(46,5,6,47)            0.1            estimate D2E/DX2                !
 ! D41   D(5,6,7,8)              0.383          estimate D2E/DX2                !
 ! D42   D(5,6,7,48)          -179.7941         estimate D2E/DX2                !
 ! D43   D(47,6,7,8)          -179.6638         estimate D2E/DX2                !
 ! D44   D(47,6,7,48)            0.1592         estimate D2E/DX2                !
 ! D45   D(6,7,8,4)             -0.1431         estimate D2E/DX2                !
 ! D46   D(6,7,8,49)           179.8452         estimate D2E/DX2                !
 ! D47   D(48,7,8,4)          -179.966          estimate D2E/DX2                !
 ! D48   D(48,7,8,49)            0.0222         estimate D2E/DX2                !
 ! D49   D(1,9,10,11)           -0.2387         estimate D2E/DX2                !
 ! D50   D(1,9,10,51)         -179.8517         estimate D2E/DX2                !
 ! D51   D(50,9,10,11)         178.693          estimate D2E/DX2                !
 ! D52   D(50,9,10,51)          -0.92           estimate D2E/DX2                !
 ! D53   D(9,10,11,12)          -0.9446         estimate D2E/DX2                !
 ! D54   D(9,10,11,52)         179.8758         estimate D2E/DX2                !
 ! D55   D(51,10,11,12)        178.6664         estimate D2E/DX2                !
 ! D56   D(51,10,11,52)         -0.5131         estimate D2E/DX2                !
 ! D57   D(10,11,12,2)           0.7157         estimate D2E/DX2                !
 ! D58   D(10,11,12,53)       -178.6653         estimate D2E/DX2                !
 ! D59   D(52,11,12,2)         179.8985         estimate D2E/DX2                !
 ! D60   D(52,11,12,53)          0.5174         estimate D2E/DX2                !
 ! D61   D(4,13,14,1)           -3.4816         estimate D2E/DX2                !
 ! D62   D(4,13,14,17)         177.8243         estimate D2E/DX2                !
 ! D63   D(15,13,14,1)         177.9397         estimate D2E/DX2                !
 ! D64   D(15,13,14,17)         -0.7545         estimate D2E/DX2                !
 ! D65   D(4,13,15,16)        -177.886          estimate D2E/DX2                !
 ! D66   D(4,13,15,54)          -3.7637         estimate D2E/DX2                !
 ! D67   D(14,13,15,16)          0.5966         estimate D2E/DX2                !
 ! D68   D(14,13,15,54)        174.719          estimate D2E/DX2                !
 ! D69   D(1,14,17,16)        -177.8352         estimate D2E/DX2                !
 ! D70   D(1,14,17,18)           1.9915         estimate D2E/DX2                !
 ! D71   D(13,14,17,16)          0.6784         estimate D2E/DX2                !
 ! D72   D(13,14,17,18)       -179.4949         estimate D2E/DX2                !
 ! D73   D(13,15,16,17)         -0.1719         estimate D2E/DX2                !
 ! D74   D(13,15,16,24)       -178.9579         estimate D2E/DX2                !
 ! D75   D(54,15,16,17)       -174.5418         estimate D2E/DX2                !
 ! D76   D(54,15,16,24)          6.6721         estimate D2E/DX2                !
 ! D77   D(15,16,17,14)         -0.3161         estimate D2E/DX2                !
 ! D78   D(15,16,17,18)        179.8508         estimate D2E/DX2                !
 ! D79   D(24,16,17,14)        178.3863         estimate D2E/DX2                !
 ! D80   D(24,16,17,18)         -1.4467         estimate D2E/DX2                !
 ! D81   D(15,16,24,25)       -144.7349         estimate D2E/DX2                !
 ! D82   D(15,16,24,29)         32.8954         estimate D2E/DX2                !
 ! D83   D(17,16,24,25)         36.766          estimate D2E/DX2                !
 ! D84   D(17,16,24,29)       -145.6036         estimate D2E/DX2                !
 ! D85   D(14,17,18,19)         73.8994         estimate D2E/DX2                !
 ! D86   D(14,17,18,23)       -106.4297         estimate D2E/DX2                !
 ! D87   D(16,17,18,19)       -106.2967         estimate D2E/DX2                !
 ! D88   D(16,17,18,23)         73.3742         estimate D2E/DX2                !
 ! D89   D(17,18,19,20)       -179.975          estimate D2E/DX2                !
 ! D90   D(17,18,19,55)         -0.741          estimate D2E/DX2                !
 ! D91   D(23,18,19,20)          0.3633         estimate D2E/DX2                !
 ! D92   D(23,18,19,55)        179.5973         estimate D2E/DX2                !
 ! D93   D(17,18,23,22)       -179.6003         estimate D2E/DX2                !
 ! D94   D(17,18,23,56)          0.3004         estimate D2E/DX2                !
 ! D95   D(19,18,23,22)          0.0597         estimate D2E/DX2                !
 ! D96   D(19,18,23,56)        179.9604         estimate D2E/DX2                !
 ! D97   D(18,19,20,21)         -0.4951         estimate D2E/DX2                !
 ! D98   D(18,19,20,45)        179.6251         estimate D2E/DX2                !
 ! D99   D(55,19,20,21)       -179.735          estimate D2E/DX2                !
 ! D100  D(55,19,20,45)          0.3852         estimate D2E/DX2                !
 ! D101  D(19,20,21,22)          0.2077         estimate D2E/DX2                !
 ! D102  D(19,20,21,44)       -179.7906         estimate D2E/DX2                !
 ! D103  D(45,20,21,22)       -179.9153         estimate D2E/DX2                !
 ! D104  D(45,20,21,44)          0.0864         estimate D2E/DX2                !
 ! D105  D(20,21,22,23)          0.2253         estimate D2E/DX2                !
 ! D106  D(20,21,22,43)        179.9954         estimate D2E/DX2                !
 ! D107  D(44,21,22,23)       -179.7765         estimate D2E/DX2                !
 ! D108  D(44,21,22,43)         -0.0064         estimate D2E/DX2                !
 ! D109  D(21,22,23,18)         -0.3569         estimate D2E/DX2                !
 ! D110  D(21,22,23,56)        179.7415         estimate D2E/DX2                !
 ! D111  D(43,22,23,18)        179.8677         estimate D2E/DX2                !
 ! D112  D(43,22,23,56)         -0.0339         estimate D2E/DX2                !
 ! D113  D(16,24,25,26)        177.4928         estimate D2E/DX2                !
 ! D114  D(16,24,25,57)         -1.4272         estimate D2E/DX2                !
 ! D115  D(29,24,25,26)         -0.1479         estimate D2E/DX2                !
 ! D116  D(29,24,25,57)       -179.068          estimate D2E/DX2                !
 ! D117  D(16,24,29,28)       -178.0063         estimate D2E/DX2                !
 ! D118  D(16,24,29,60)          3.9777         estimate D2E/DX2                !
 ! D119  D(25,24,29,28)         -0.2594         estimate D2E/DX2                !
 ! D120  D(25,24,29,60)       -178.2754         estimate D2E/DX2                !
 ! D121  D(24,25,26,27)          0.3588         estimate D2E/DX2                !
 ! D122  D(24,25,26,58)       -179.9166         estimate D2E/DX2                !
 ! D123  D(57,25,26,27)        179.2993         estimate D2E/DX2                !
 ! D124  D(57,25,26,58)         -0.9761         estimate D2E/DX2                !
 ! D125  D(25,26,27,28)         -0.1645         estimate D2E/DX2                !
 ! D126  D(25,26,27,30)        179.7321         estimate D2E/DX2                !
 ! D127  D(58,26,27,28)       -179.8891         estimate D2E/DX2                !
 ! D128  D(58,26,27,30)          0.0076         estimate D2E/DX2                !
 ! D129  D(26,27,28,29)         -0.2394         estimate D2E/DX2                !
 ! D130  D(26,27,28,59)        179.813          estimate D2E/DX2                !
 ! D131  D(30,27,28,29)        179.8639         estimate D2E/DX2                !
 ! D132  D(30,27,28,59)         -0.0837         estimate D2E/DX2                !
 ! D133  D(26,27,30,31)       -161.9295         estimate D2E/DX2                !
 ! D134  D(26,27,30,32)         18.1617         estimate D2E/DX2                !
 ! D135  D(28,27,30,31)         17.9639         estimate D2E/DX2                !
 ! D136  D(28,27,30,32)       -161.945          estimate D2E/DX2                !
 ! D137  D(27,28,29,24)          0.4548         estimate D2E/DX2                !
 ! D138  D(27,28,29,60)        178.5029         estimate D2E/DX2                !
 ! D139  D(59,28,29,24)       -179.5977         estimate D2E/DX2                !
 ! D140  D(59,28,29,60)         -1.5496         estimate D2E/DX2                !
 ! D141  D(27,30,31,38)       -127.4261         estimate D2E/DX2                !
 ! D142  D(27,30,31,42)         54.6184         estimate D2E/DX2                !
 ! D143  D(32,30,31,38)         52.4868         estimate D2E/DX2                !
 ! D144  D(32,30,31,42)       -125.4687         estimate D2E/DX2                !
 ! D145  D(27,30,32,33)       -127.7755         estimate D2E/DX2                !
 ! D146  D(27,30,32,37)         54.2736         estimate D2E/DX2                !
 ! D147  D(31,30,32,33)         52.3116         estimate D2E/DX2                !
 ! D148  D(31,30,32,37)       -125.6393         estimate D2E/DX2                !
 ! D149  D(30,31,38,39)       -178.3746         estimate D2E/DX2                !
 ! D150  D(30,31,38,66)          1.0686         estimate D2E/DX2                !
 ! D151  D(42,31,38,39)         -0.4227         estimate D2E/DX2                !
 ! D152  D(42,31,38,66)        179.0206         estimate D2E/DX2                !
 ! D153  D(30,31,42,41)        179.0528         estimate D2E/DX2                !
 ! D154  D(30,31,42,70)         -0.6861         estimate D2E/DX2                !
 ! D155  D(38,31,42,41)          1.1162         estimate D2E/DX2                !
 ! D156  D(38,31,42,70)       -178.6227         estimate D2E/DX2                !
 ! D157  D(30,32,33,34)       -178.3752         estimate D2E/DX2                !
 ! D158  D(30,32,33,61)          1.1059         estimate D2E/DX2                !
 ! D159  D(37,32,33,34)         -0.4278         estimate D2E/DX2                !
 ! D160  D(37,32,33,61)        179.0533         estimate D2E/DX2                !
 ! D161  D(30,32,37,36)        179.0556         estimate D2E/DX2                !
 ! D162  D(30,32,37,65)         -0.7416         estimate D2E/DX2                !
 ! D163  D(33,32,37,36)          1.1239         estimate D2E/DX2                !
 ! D164  D(33,32,37,65)       -178.6733         estimate D2E/DX2                !
 ! D165  D(32,33,34,35)         -0.4113         estimate D2E/DX2                !
 ! D166  D(32,33,34,62)        179.8711         estimate D2E/DX2                !
 ! D167  D(61,33,34,35)       -179.8836         estimate D2E/DX2                !
 ! D168  D(61,33,34,62)          0.3988         estimate D2E/DX2                !
 ! D169  D(33,34,35,36)          0.5494         estimate D2E/DX2                !
 ! D170  D(33,34,35,63)       -179.8716         estimate D2E/DX2                !
 ! D171  D(62,34,35,36)       -179.7346         estimate D2E/DX2                !
 ! D172  D(62,34,35,63)         -0.1556         estimate D2E/DX2                !
 ! D173  D(34,35,36,37)          0.1538         estimate D2E/DX2                !
 ! D174  D(34,35,36,64)        179.1122         estimate D2E/DX2                !
 ! D175  D(63,35,36,37)       -179.4253         estimate D2E/DX2                !
 ! D176  D(63,35,36,64)         -0.4668         estimate D2E/DX2                !
 ! D177  D(35,36,37,32)         -0.9845         estimate D2E/DX2                !
 ! D178  D(35,36,37,65)        178.8099         estimate D2E/DX2                !
 ! D179  D(64,36,37,32)       -179.9485         estimate D2E/DX2                !
 ! D180  D(64,36,37,65)         -0.1541         estimate D2E/DX2                !
 ! D181  D(31,38,39,40)         -0.4153         estimate D2E/DX2                !
 ! D182  D(31,38,39,67)        179.8495         estimate D2E/DX2                !
 ! D183  D(66,38,39,40)       -179.849          estimate D2E/DX2                !
 ! D184  D(66,38,39,67)          0.4158         estimate D2E/DX2                !
 ! D185  D(38,39,40,41)          0.5548         estimate D2E/DX2                !
 ! D186  D(38,39,40,68)       -179.8877         estimate D2E/DX2                !
 ! D187  D(67,39,40,41)       -179.7114         estimate D2E/DX2                !
 ! D188  D(67,39,40,68)         -0.1539         estimate D2E/DX2                !
 ! D189  D(39,40,41,42)          0.1457         estimate D2E/DX2                !
 ! D190  D(39,40,41,69)        179.0794         estimate D2E/DX2                !
 ! D191  D(68,40,41,42)       -179.4118         estimate D2E/DX2                !
 ! D192  D(68,40,41,69)         -0.4781         estimate D2E/DX2                !
 ! D193  D(40,41,42,31)         -0.9755         estimate D2E/DX2                !
 ! D194  D(40,41,42,70)        178.7598         estimate D2E/DX2                !
 ! D195  D(69,41,42,31)       -179.9147         estimate D2E/DX2                !
 ! D196  D(69,41,42,70)         -0.1794         estimate D2E/DX2                !
 --------------------------------------------------------------------------------
 Trust Radius=3.00D-01 FncErr=1.00D-07 GrdErr=1.00D-06 EigMax=2.50D+02 EigMin=1.00D-04
 Number of optimizations in scan=  18
 Number of steps in this run=    409 maximum allowed number of steps=    420.
 GradGradGradGradGradGradGradGradGradGradGradGradGradGradGradGradGradGrad

 Leave Link  103 at Mon May 18 03:51:05 2026, MaxMem=  2684354560 cpu:               0.0 elap:               0.0
 (Enter /home/aced/g16/l202.exe)
 Stoichiometry    C39H25Cl3N3(1+)
 Framework group  C1[X(C39H25Cl3N3)]
 Deg. of freedom   204
 Full point group                 C1      NOp   1
 Largest Abelian subgroup         C1      NOp   1
 Largest concise Abelian subgroup C1      NOp   1
                         Standard orientation:                         
 ---------------------------------------------------------------------
 Center     Atomic      Atomic             Coordinates (Angstroms)
 Number     Number       Type             X           Y           Z
 ---------------------------------------------------------------------
      1          6           0        4.539482   -0.286974    0.106213
      2          6           0        5.618892   -1.203393   -0.053520
      3          6           0        5.385073   -2.628818   -0.322325
      4          6           0        4.067582   -3.141455   -0.397227
      5          6           0        6.437793   -3.549941   -0.499645
      6          6           0        6.193522   -4.889316   -0.726353
      7          6           0        4.880312   -5.378472   -0.785842
      8          6           0        3.825599   -4.507604   -0.623465
      9          6           0        4.799702    1.060605    0.427096
     10          6           0        6.095408    1.513592    0.556190
     11          6           0        7.165544    0.630316    0.372857
     12          6           0        6.926347   -0.696668    0.082494
     13          6           0        3.015439   -2.185465   -0.250015
     14          6           0        3.219210   -0.843844   -0.048625
     15          7           0        1.648262   -2.378403   -0.308010
     16          6           0        0.998878   -1.211381   -0.164001
     17          7           0        1.945449   -0.256822   -0.008023
     18          6           0        1.648234    1.135093    0.172932
     19          6           0        1.875969    2.009387   -0.881498
     20          6           0        1.589210    3.358654   -0.708282
     21          6           0        1.068134    3.831509    0.507323
     22          6           0        0.845307    2.918020    1.548215
     23          6           0        1.137955    1.566782    1.386500
     24          6           0       -0.444377   -1.080243   -0.157554
     25          6           0       -1.117205    0.025736   -0.707424
     26          6           0       -2.493998    0.079973   -0.722373
     27          6           0       -3.272310   -0.969933   -0.179213
     28          6           0       -2.591864   -2.079052    0.376647
     29          6           0       -1.214932   -2.127710    0.379396
     30          7           0       -4.645493   -0.913208   -0.189286
     31          6           0       -5.435835   -1.744706    0.667769
     32          6           0       -5.352341   -0.021365   -1.058567
     33          6           0       -6.314121    0.835895   -0.525502
     34          6           0       -7.026861    1.679552   -1.370929
     35          6           0       -6.777075    1.676048   -2.741276
     36          6           0       -5.817062    0.815547   -3.269169
     37          6           0       -5.109867   -0.041903   -2.432956
     38          6           0       -6.452309   -2.525019    0.118193
     39          6           0       -7.244307   -3.308083    0.951402
     40          6           0       -7.019658   -3.321022    2.326043
     41          6           0       -6.004631   -2.537350    2.870483
     42          6           0       -5.217199   -1.740104    2.046323
     43         17           0        0.208082    3.442880    3.060073
     44         17           0        0.711214    5.495153    0.714134
     45         17           0        1.884701    4.436388   -2.019694
     46          1           0        7.466952   -3.217311   -0.462688
     47          1           0        7.027701   -5.569301   -0.858917
     48          1           0        4.697048   -6.432516   -0.961009
     49          1           0        2.806963   -4.882583   -0.671457
     50          1           0        3.984970    1.751932    0.593180
     51          1           0        6.280481    2.552370    0.805772
     52          1           0        8.185866    0.983786    0.471680
     53          1           0        7.776078   -1.356975   -0.031430
     54          1           0        1.268277   -3.073571   -0.479073
     55          1           0        2.282107    1.654556   -1.822394
     56          1           0        0.965363    0.871214    2.199537
     57          1           0       -0.560784    0.847037   -1.144903
     58          1           0       -2.988486    0.941912   -1.152714
     59          1           0       -3.159232   -2.897003    0.802788
     60          1           0       -0.727518   -2.984570    0.837483
     61          1           0       -6.500502    0.827634    0.543859
     62          1           0       -7.776392    2.344691   -0.955873
     63          1           0       -7.333501    2.336863   -3.396856
     64          1           0       -5.628928    0.798697   -4.337383
     65          1           0       -4.372955   -0.730414   -2.835887
     66          1           0       -6.618458   -2.504088   -0.954331
     67          1           0       -8.036493   -3.913034    0.523624
     68          1           0       -7.638230   -3.934336    2.972055
     69          1           0       -5.835370   -2.532492    3.941982
     70          1           0       -4.436282   -1.109949    2.461714
 ---------------------------------------------------------------------
 Rotational constants (GHZ):           0.0800727           0.0379836           0.0295497
 Leave Link  202 at Mon May 18 03:51:05 2026, MaxMem=  2684354560 cpu:               0.0 elap:               0.0
 (Enter /home/aced/g16/l301.exe)
 Standard basis: 6-31G(d,p) (6D, 7F)
 Ernie: Thresh=  0.10000D-02 Tol=  0.10000D-05 Strict=F.
 There are   812 symmetry adapted cartesian basis functions of A   symmetry.
 There are   812 symmetry adapted basis functions of A   symmetry.
   812 basis functions,  1507 primitive gaussians,   812 cartesian basis functions
   165 alpha electrons      165 beta electrons
       nuclear repulsion energy      5539.9403918783 Hartrees.
 IExCor= 4336 DFT=T Ex+Corr=M062X ExCW=0 ScaHFX=  0.540000
 ScaDFX=  1.000000  1.000000  1.000000  1.000000 ScalE2=  1.000000  1.000000
 IRadAn=      5 IRanWt=     -1 IRanGd=            0 ICorTp=0 IEmpDi=  4
 NAtoms=   70 NActive=   70 NUniq=   70 SFac= 1.00D+00 NAtFMM=   60 NAOKFM=T Big=T
 Integral buffers will be    131072 words long.
 Raffenetti 2 integral format.
 Two-electron integral symmetry is turned on.
 Leave Link  301 at Mon May 18 03:51:05 2026, MaxMem=  2684354560 cpu:               0.1 elap:               0.0
 (Enter /home/aced/g16/l302.exe)
 NPDir=0 NMtPBC=     1 NCelOv=     1 NCel=       1 NClECP=     1 NCelD=      1
         NCelK=      1 NCelE2=     1 NClLst=     1 CellRange=     0.0.
 One-electron integrals computed using PRISM.
 One-electron integral symmetry used in STVInt
 NBasis=   812 RedAO= T EigKep=  1.40D-04  NBF=   812
 NBsUse=   812 1.00D-06 EigRej= -1.00D+00 NBFU=   812
 Precomputing XC quadrature grid using
 IXCGrd= 4 IRadAn=           5 IRanWt=          -1 IRanGd=           0 AccXCQ= 0.00D+00.
 Generated NRdTot=       0 NPtTot=           0 NUsed=           0 NTot=          32
 NSgBfM=   778   778   778   778   778 MxSgAt=    70 MxSgA2=    70.
 Leave Link  302 at Mon May 18 03:51:06 2026, MaxMem=  2684354560 cpu:               5.6 elap:               0.7
 (Enter /home/aced/g16/l303.exe)
 DipDrv:  MaxL=1.
 Leave Link  303 at Mon May 18 03:51:06 2026, MaxMem=  2684354560 cpu:               0.3 elap:               0.0
 (Enter /home/aced/g16/l401.exe)
 ExpMin= 1.43D-01 ExpMax= 2.52D+04 ExpMxC= 3.78D+03 IAcc=3 IRadAn=         5 AccDes= 0.00D+00
 Harris functional with IExCor= 1009 and IRadAn=       5 diagonalized for initial guess.
 HarFok:  IExCor= 1009 AccDes= 0.00D+00 IRadAn=         5 IDoV= 1 UseB2=F ITyADJ=14
 ICtDFT=  3500011 ScaDFX=  1.000000  1.000000  1.000000  1.000000
 FoFCou: FMM=F IPFlag=           0 FMFlag=      100000 FMFlg1=        2001
         NFxFlg=           0 DoJE=T BraDBF=F KetDBF=T FulRan=T
         wScrn=  0.000000 ICntrl=       500 IOpCl=  0 I1Cent=   200000004 NGrid=           0
         NMat0=    1 NMatS0=      1 NMatT0=    0 NMatD0=    1 NMtDS0=    0 NMtDT0=    0
 Petite list used in FoFCou.
 Harris En= -3043.52603853461    
 JPrj=0 DoOrth=F DoCkMO=F.
 Leave Link  401 at Mon May 18 03:51:10 2026, MaxMem=  2684354560 cpu:              31.2 elap:               3.9
 (Enter /home/aced/g16/l502.exe)
 Integral symmetry usage will be decided dynamically.
 Closed shell SCF:
 Using DIIS extrapolation, IDIIS=  1040.
 NGot=  2684354560 LenX=  2683021232 LenY=  2682361076
 Requested convergence on RMS density matrix=1.00D-08 within 128 cycles.
 Requested convergence on MAX density matrix=1.00D-06.
 Requested convergence on             energy=1.00D-06.
 No special actions if energy rises.
 Fock matrices will be formed incrementally for  20 cycles.
 Integral accuracy reduced to 1.0D-05 until final iterations.

 Cycle   1  Pass 0  IDiag  1:
 FoFJK:  IHMeth= 1 ICntrl=       0 DoSepK=F KAlg= 0 I1Cent=           0 FoldK=F
 IRaf= 720000000 NMat=       1 IRICut=       1 DoRegI=T DoRafI=F ISym2E= 0 IDoP0=0 IntGTp=1.
 FoFCou: FMM=T IPFlag=           0 FMFlag=      100000 FMFlg1=        2001
         NFxFlg=           0 DoJE=F BraDBF=F KetDBF=F FulRan=T
         wScrn=  0.000000 ICntrl=         0 IOpCl=  0 I1Cent=           0 NGrid=           0
         NMat0=    1 NMatS0=      1 NMatT0=    0 NMatD0=    1 NMtDS0=    0 NMtDT0=    0
 Symmetry not used in FoFCou.
 FMM levels:  10  Number of levels for PrismC:   9
 E= -3044.21806485431    
 DIIS: error= 2.82D-02 at cycle   1 NSaved=   1.
 NSaved= 1 IEnMin= 1 EnMin= -3044.21806485431     IErMin= 1 ErrMin= 2.82D-02
 ErrMax= 2.82D-02  0.00D+00 EMaxC= 1.00D-01 BMatC= 9.93D-01 BMatP= 9.93D-01
 IDIUse=3 WtCom= 7.18D-01 WtEn= 2.82D-01
 Coeff-Com:  0.100D+01
 Coeff-En:   0.100D+01
 Coeff:      0.100D+01
 Gap=     0.448 Goal=   None    Shift=    0.000
 GapD=    0.448 DampG=2.000 DampE=0.500 DampFc=1.0000 IDamp=-1.
 RMSDP=2.67D-03 MaxDP=1.20D-01              OVMax= 2.24D-01

 Cycle   2  Pass 0  IDiag  1:
 RMSU=  2.62D-03    CP:  9.56D-01
 E= -3044.41510434257     Delta-E=       -0.197039488256 Rises=F Damp=F
 DIIS: error= 1.71D-02 at cycle   2 NSaved=   2.
 NSaved= 2 IEnMin= 2 EnMin= -3044.41510434257     IErMin= 2 ErrMin= 1.71D-02
 ErrMax= 1.71D-02  0.00D+00 EMaxC= 1.00D-01 BMatC= 6.88D-01 BMatP= 9.93D-01
 IDIUse=3 WtCom= 8.29D-01 WtEn= 1.71D-01
 Coeff-Com:  0.448D+00 0.552D+00
 Coeff-En:   0.428D+00 0.572D+00
 Coeff:      0.445D+00 0.555D+00
 Gap=     0.234 Goal=   None    Shift=    0.000
 RMSDP=1.52D-03 MaxDP=1.16D-01 DE=-1.97D-01 OVMax= 1.60D-01

 Cycle   3  Pass 0  IDiag  1:
 RMSU=  9.39D-04    CP:  9.64D-01  5.47D-01
 E= -3045.05624780981     Delta-E=       -0.641143467235 Rises=F Damp=F
 DIIS: error= 6.61D-03 at cycle   3 NSaved=   3.
 NSaved= 3 IEnMin= 3 EnMin= -3045.05624780981     IErMin= 3 ErrMin= 6.61D-03
 ErrMax= 6.61D-03  0.00D+00 EMaxC= 1.00D-01 BMatC= 5.64D-02 BMatP= 6.88D-01
 IDIUse=3 WtCom= 9.34D-01 WtEn= 6.61D-02
 Coeff-Com:  0.115D+00 0.250D+00 0.635D+00
 Coeff-En:   0.000D+00 0.000D+00 0.100D+01
 Coeff:      0.108D+00 0.233D+00 0.659D+00
 Gap=     0.229 Goal=   None    Shift=    0.000
 RMSDP=5.00D-04 MaxDP=4.42D-02 DE=-6.41D-01 OVMax= 7.06D-02

 Cycle   4  Pass 0  IDiag  1:
 RMSU=  2.98D-04    CP:  9.65D-01  6.21D-01  6.25D-01
 E= -3045.10152860182     Delta-E=       -0.045280792014 Rises=F Damp=F
 DIIS: error= 3.54D-03 at cycle   4 NSaved=   4.
 NSaved= 4 IEnMin= 4 EnMin= -3045.10152860182     IErMin= 4 ErrMin= 3.54D-03
 ErrMax= 3.54D-03  0.00D+00 EMaxC= 1.00D-01 BMatC= 1.16D-02 BMatP= 5.64D-02
 IDIUse=3 WtCom= 9.65D-01 WtEn= 3.54D-02
 Coeff-Com:  0.139D-01 0.648D-01 0.361D+00 0.560D+00
 Coeff-En:   0.000D+00 0.000D+00 0.163D+00 0.837D+00
 Coeff:      0.134D-01 0.625D-01 0.354D+00 0.570D+00
 Gap=     0.185 Goal=   None    Shift=    0.000
 RMSDP=1.91D-04 MaxDP=1.72D-02 DE=-4.53D-02 OVMax= 2.84D-02

 Cycle   5  Pass 0  IDiag  1:
 RMSU=  9.46D-05    CP:  9.64D-01  6.13D-01  7.19D-01  5.33D-01
 E= -3045.11283590947     Delta-E=       -0.011307307655 Rises=F Damp=F
 DIIS: error= 7.52D-04 at cycle   5 NSaved=   5.
 NSaved= 5 IEnMin= 5 EnMin= -3045.11283590947     IErMin= 5 ErrMin= 7.52D-04
 ErrMax= 7.52D-04  0.00D+00 EMaxC= 1.00D-01 BMatC= 8.87D-04 BMatP= 1.16D-02
 IDIUse=3 WtCom= 9.92D-01 WtEn= 7.52D-03
 Coeff-Com: -0.125D-02 0.144D-01 0.140D+00 0.305D+00 0.542D+00
 Coeff-En:   0.000D+00 0.000D+00 0.000D+00 0.000D+00 0.100D+01
 Coeff:     -0.124D-02 0.143D-01 0.139D+00 0.303D+00 0.545D+00
 Gap=     0.189 Goal=   None    Shift=    0.000
 RMSDP=5.28D-05 MaxDP=4.32D-03 DE=-1.13D-02 OVMax= 8.81D-03

 Cycle   6  Pass 0  IDiag  1:
 RMSU=  3.14D-05    CP:  9.64D-01  6.12D-01  7.27D-01  6.11D-01  6.36D-01
 E= -3045.11374733218     Delta-E=       -0.000911422707 Rises=F Damp=F
 DIIS: error= 1.76D-04 at cycle   6 NSaved=   6.
 NSaved= 6 IEnMin= 6 EnMin= -3045.11374733218     IErMin= 6 ErrMin= 1.76D-04
 ErrMax= 1.76D-04  0.00D+00 EMaxC= 1.00D-01 BMatC= 4.82D-05 BMatP= 8.87D-04
 IDIUse=3 WtCom= 9.98D-01 WtEn= 1.76D-03
 Coeff-Com: -0.161D-02-0.777D-03 0.220D-01 0.668D-01 0.230D+00 0.683D+00
 Coeff-En:   0.000D+00 0.000D+00 0.000D+00 0.000D+00 0.000D+00 0.100D+01
 Coeff:     -0.161D-02-0.776D-03 0.220D-01 0.667D-01 0.230D+00 0.684D+00
 Gap=     0.189 Goal=   None    Shift=    0.000
 RMSDP=1.45D-05 MaxDP=1.01D-03 DE=-9.11D-04 OVMax= 2.28D-03

 Cycle   7  Pass 0  IDiag  1:
 RMSU=  1.03D-05    CP:  9.64D-01  6.12D-01  7.29D-01  6.17D-01  7.13D-01
                    CP:  7.88D-01
 E= -3045.11379844135     Delta-E=       -0.000051109171 Rises=F Damp=F
 DIIS: error= 8.34D-05 at cycle   7 NSaved=   7.
 NSaved= 7 IEnMin= 7 EnMin= -3045.11379844135     IErMin= 7 ErrMin= 8.34D-05
 ErrMax= 8.34D-05  0.00D+00 EMaxC= 1.00D-01 BMatC= 8.02D-06 BMatP= 4.82D-05
 IDIUse=1 WtCom= 1.00D+00 WtEn= 0.00D+00
 Coeff-Com: -0.735D-03-0.201D-02-0.245D-02 0.299D-02 0.630D-01 0.343D+00
 Coeff-Com:  0.596D+00
 Coeff:     -0.735D-03-0.201D-02-0.245D-02 0.299D-02 0.630D-01 0.343D+00
 Coeff:      0.596D+00
 Gap=     0.189 Goal=   None    Shift=    0.000
 RMSDP=6.26D-06 MaxDP=3.02D-04 DE=-5.11D-05 OVMax= 1.11D-03

 Initial convergence to 1.0D-05 achieved.  Increase integral accuracy.
 Cycle   8  Pass 1  IDiag  1:
 E= -3045.11430121481     Delta-E=       -0.000502773455 Rises=F Damp=F
 DIIS: error= 2.58D-04 at cycle   1 NSaved=   1.
 NSaved= 1 IEnMin= 1 EnMin= -3045.11430121481     IErMin= 1 ErrMin= 2.58D-04
 ErrMax= 2.58D-04  0.00D+00 EMaxC= 1.00D-01 BMatC= 2.24D-05 BMatP= 2.24D-05
 IDIUse=3 WtCom= 9.97D-01 WtEn= 2.58D-03
 Coeff-Com:  0.100D+01
 Coeff-En:   0.100D+01
 Coeff:      0.100D+01
 Gap=     0.189 Goal=   None    Shift=    0.000
 RMSDP=6.26D-06 MaxDP=3.02D-04 DE=-5.03D-04 OVMax= 7.84D-04

 Cycle   9  Pass 1  IDiag  1:
 RMSU=  1.20D-04    CP:  1.00D+00
 E= -3045.11431664223     Delta-E=       -0.000015427422 Rises=F Damp=F
 DIIS: error= 4.73D-05 at cycle   2 NSaved=   2.
 NSaved= 2 IEnMin= 2 EnMin= -3045.11431664223     IErMin= 2 ErrMin= 4.73D-05
 ErrMax= 4.73D-05  0.00D+00 EMaxC= 1.00D-01 BMatC= 3.15D-06 BMatP= 2.24D-05
 IDIUse=1 WtCom= 1.00D+00 WtEn= 0.00D+00
 Coeff-Com:  0.160D+00 0.840D+00
 Coeff:      0.160D+00 0.840D+00
 Gap=     0.189 Goal=   None    Shift=    0.000
 RMSDP=6.73D-06 MaxDP=4.12D-04 DE=-1.54D-05 OVMax= 1.22D-03

 Cycle  10  Pass 1  IDiag  1:
 RMSU=  6.25D-06    CP:  1.00D+00  1.02D+00
 E= -3045.11431395087     Delta-E=        0.000002691364 Rises=F Damp=F
 DIIS: error= 6.85D-05 at cycle   3 NSaved=   3.
 NSaved= 3 IEnMin= 2 EnMin= -3045.11431664223     IErMin= 2 ErrMin= 4.73D-05
 ErrMax= 6.85D-05  0.00D+00 EMaxC= 1.00D-01 BMatC= 5.68D-06 BMatP= 3.15D-06
 IDIUse=1 WtCom= 1.00D+00 WtEn= 0.00D+00
 Coeff-Com: -0.120D-01 0.578D+00 0.434D+00
 Coeff:     -0.120D-01 0.578D+00 0.434D+00
 Gap=     0.189 Goal=   None    Shift=    0.000
 RMSDP=3.71D-06 MaxDP=2.60D-04 DE= 2.69D-06 OVMax= 7.16D-04

 Cycle  11  Pass 1  IDiag  1:
 RMSU=  8.34D-07    CP:  1.00D+00  1.03D+00  4.34D-01
 E= -3045.11432013709     Delta-E=       -0.000006186223 Rises=F Damp=F
 DIIS: error= 4.65D-06 at cycle   4 NSaved=   4.
 NSaved= 4 IEnMin= 4 EnMin= -3045.11432013709     IErMin= 4 ErrMin= 4.65D-06
 ErrMax= 4.65D-06  0.00D+00 EMaxC= 1.00D-01 BMatC= 3.64D-08 BMatP= 3.15D-06
 IDIUse=1 WtCom= 1.00D+00 WtEn= 0.00D+00
 Coeff-Com: -0.818D-02 0.294D+00 0.226D+00 0.488D+00
 Coeff:     -0.818D-02 0.294D+00 0.226D+00 0.488D+00
 Gap=     0.189 Goal=   None    Shift=    0.000
 RMSDP=3.08D-07 MaxDP=2.73D-05 DE=-6.19D-06 OVMax= 4.95D-05

 Cycle  12  Pass 1  IDiag  1:
 RMSU=  2.82D-07    CP:  1.00D+00  1.03D+00  4.45D-01  8.79D-01
 E= -3045.11432017439     Delta-E=       -0.000000037300 Rises=F Damp=F
 DIIS: error= 1.73D-06 at cycle   5 NSaved=   5.
 NSaved= 5 IEnMin= 5 EnMin= -3045.11432017439     IErMin= 5 ErrMin= 1.73D-06
 ErrMax= 1.73D-06  0.00D+00 EMaxC= 1.00D-01 BMatC= 1.84D-09 BMatP= 3.64D-08
 IDIUse=1 WtCom= 1.00D+00 WtEn= 0.00D+00
 Coeff-Com: -0.385D-03-0.863D-02-0.792D-02 0.131D+00 0.886D+00
 Coeff:     -0.385D-03-0.863D-02-0.792D-02 0.131D+00 0.886D+00
 Gap=     0.189 Goal=   None    Shift=    0.000
 RMSDP=1.34D-07 MaxDP=7.82D-06 DE=-3.73D-08 OVMax= 2.56D-05

 Cycle  13  Pass 1  IDiag  1:
 RMSU=  1.08D-07    CP:  1.00D+00  1.03D+00  4.45D-01  9.69D-01  1.04D+00
 E= -3045.11432017790     Delta-E=       -0.000000003514 Rises=F Damp=F
 DIIS: error= 6.14D-07 at cycle   6 NSaved=   6.
 NSaved= 6 IEnMin= 6 EnMin= -3045.11432017790     IErMin= 6 ErrMin= 6.14D-07
 ErrMax= 6.14D-07  0.00D+00 EMaxC= 1.00D-01 BMatC= 5.68D-10 BMatP= 1.84D-09
 IDIUse=1 WtCom= 1.00D+00 WtEn= 0.00D+00
 Coeff-Com:  0.122D-02-0.542D-01-0.431D-01-0.192D-01 0.441D+00 0.674D+00
 Coeff:      0.122D-02-0.542D-01-0.431D-01-0.192D-01 0.441D+00 0.674D+00
 Gap=     0.189 Goal=   None    Shift=    0.000
 RMSDP=6.16D-08 MaxDP=3.22D-06 DE=-3.51D-09 OVMax= 1.66D-05

 Cycle  14  Pass 1  IDiag  1:
 RMSU=  4.96D-08    CP:  1.00D+00  1.03D+00  4.44D-01  9.96D-01  1.13D+00
                    CP:  8.85D-01
 E= -3045.11432017885     Delta-E=       -0.000000000946 Rises=F Damp=F
 DIIS: error= 3.51D-07 at cycle   7 NSaved=   7.
 NSaved= 7 IEnMin= 7 EnMin= -3045.11432017885     IErMin= 7 ErrMin= 3.51D-07
 ErrMax= 3.51D-07  0.00D+00 EMaxC= 1.00D-01 BMatC= 6.19D-11 BMatP= 5.68D-10
 IDIUse=1 WtCom= 1.00D+00 WtEn= 0.00D+00
 Coeff-Com:  0.586D-03-0.231D-01-0.183D-01-0.242D-01 0.875D-01 0.298D+00
 Coeff-Com:  0.679D+00
 Coeff:      0.586D-03-0.231D-01-0.183D-01-0.242D-01 0.875D-01 0.298D+00
 Coeff:      0.679D+00
 Gap=     0.189 Goal=   None    Shift=    0.000
 RMSDP=1.87D-08 MaxDP=1.11D-06 DE=-9.46D-10 OVMax= 5.01D-06

 Cycle  15  Pass 1  IDiag  1:
 RMSU=  1.30D-08    CP:  1.00D+00  1.03D+00  4.44D-01  1.00D+00  1.15D+00
                    CP:  9.92D-01  9.69D-01
 E= -3045.11432017891     Delta-E=       -0.000000000062 Rises=F Damp=F
 DIIS: error= 1.05D-07 at cycle   8 NSaved=   8.
 NSaved= 8 IEnMin= 8 EnMin= -3045.11432017891     IErMin= 8 ErrMin= 1.05D-07
 ErrMax= 1.05D-07  0.00D+00 EMaxC= 1.00D-01 BMatC= 7.04D-12 BMatP= 6.19D-11
 IDIUse=1 WtCom= 1.00D+00 WtEn= 0.00D+00
 Coeff-Com:  0.125D-04 0.459D-03 0.349D-03-0.513D-02-0.380D-01 0.446D-02
 Coeff-Com:  0.251D+00 0.786D+00
 Coeff:      0.125D-04 0.459D-03 0.349D-03-0.513D-02-0.380D-01 0.446D-02
 Coeff:      0.251D+00 0.786D+00
 Gap=     0.189 Goal=   None    Shift=    0.000
 RMSDP=7.90D-09 MaxDP=4.07D-07 DE=-6.18D-11 OVMax= 2.24D-06

 SCF Done:  E(RM062X) =  -3045.11432018     A.U. after   15 cycles
            NFock= 15  Conv=0.79D-08     -V/T= 2.0058
 KE= 3.027637740748D+03 PE=-1.818371729174D+04 EE= 6.571024838937D+03
 Leave Link  502 at Mon May 18 03:54:18 2026, MaxMem=  2684354560 cpu:            1497.8 elap:             188.3
 (Enter /home/aced/g16/l601.exe)
 Copying SCF densities to generalized density rwf, IOpCl= 0 IROHF=0.

 **********************************************************************

            Population analysis using the SCF density.

 **********************************************************************

 Orbital symmetries:
       Occupied  (A) (A) (A) (A) (A) (A) (A) (A) (A) (A) (A) (A)
                 (A) (A) (A) (A) (A) (A) (A) (A) (A) (A) (A) (A)
                 (A) (A) (A) (A) (A) (A) (A) (A) (A) (A) (A) (A)
                 (A) (A) (A) (A) (A) (A) (A) (A) (A) (A) (A) (A)
                 (A) (A) (A) (A) (A) (A) (A) (A) (A) (A) (A) (A)
                 (A) (A) (A) (A) (A) (A) (A) (A) (A) (A) (A) (A)
                 (A) (A) (A) (A) (A) (A) (A) (A) (A) (A) (A) (A)
                 (A) (A) (A) (A) (A) (A) (A) (A) (A) (A) (A) (A)
                 (A) (A) (A) (A) (A) (A) (A) (A) (A) (A) (A) (A)
                 (A) (A) (A) (A) (A) (A) (A) (A) (A) (A) (A) (A)
                 (A) (A) (A) (A) (A) (A) (A) (A) (A) (A) (A) (A)
                 (A) (A) (A) (A) (A) (A) (A) (A) (A) (A) (A) (A)
                 (A) (A) (A) (A) (A) (A) (A) (A) (A) (A) (A) (A)
                 (A) (A) (A) (A) (A) (A) (A) (A) (A)
       Virtual   (A) (A) (A) (A) (A) (A) (A) (A) (A) (A) (A) (A)
                 (A) (A) (A) (A) (A) (A) (A) (A) (A) (A) (A) (A)
                 (A) (A) (A) (A) (A) (A) (A) (A) (A) (A) (A) (A)
                 (A) (A) (A) (A) (A) (A) (A) (A) (A) (A) (A) (A)
                 (A) (A) (A) (A) (A) (A) (A) (A) (A) (A) (A) (A)
                 (A) (A) (A) (A) (A) (A) (A) (A) (A) (A) (A) (A)
                 (A) (A) (A) (A) (A) (A) (A) (A) (A) (A) (A) (A)
                 (A) (A) (A) (A) (A) (A) (A) (A) (A) (A) (A) (A)
                 (A) (A) (A) (A) (A) (A) (A) (A) (A) (A) (A) (A)
                 (A) (A) (A) (A) (A) (A) (A) (A) (A) (A) (A) (A)
                 (A) (A) (A) (A) (A) (A) (A) (A) (A) (A) (A) (A)
                 (A) (A) (A) (A) (A) (A) (A) (A) (A) (A) (A) (A)
                 (A) (A) (A) (A) (A) (A) (A) (A) (A) (A) (A) (A)
                 (A) (A) (A) (A) (A) (A) (A) (A) (A) (A) (A) (A)
                 (A) (A) (A) (A) (A) (A) (A) (A) (A) (A) (A) (A)
                 (A) (A) (A) (A) (A) (A) (A) (A) (A) (A) (A) (A)
                 (A) (A) (A) (A) (A) (A) (A) (A) (A) (A) (A) (A)
                 (A) (A) (A) (A) (A) (A) (A) (A) (A) (A) (A) (A)
                 (A) (A) (A) (A) (A) (A) (A) (A) (A) (A) (A) (A)
                 (A) (A) (A) (A) (A) (A) (A) (A) (A) (A) (A) (A)
                 (A) (A) (A) (A) (A) (A) (A) (A) (A) (A) (A) (A)
                 (A) (A) (A) (A) (A) (A) (A) (A) (A) (A) (A) (A)
                 (A) (A) (A) (A) (A) (A) (A) (A) (A) (A) (A) (A)
                 (A) (A) (A) (A) (A) (A) (A) (A) (A) (A) (A) (A)
                 (A) (A) (A) (A) (A) (A) (A) (A) (A) (A) (A) (A)
                 (A) (A) (A) (A) (A) (A) (A) (A) (A) (A) (A) (A)
                 (A) (A) (A) (A) (A) (A) (A) (A) (A) (A) (A) (A)
                 (A) (A) (A) (A) (A) (A) (A) (A) (A) (A) (A) (A)
                 (A) (A) (A) (A) (A) (A) (A) (A) (A) (A) (A) (A)
                 (A) (A) (A) (A) (A) (A) (A) (A) (A) (A) (A) (A)
                 (A) (A) (A) (A) (A) (A) (A) (A) (A) (A) (A) (A)
                 (A) (A) (A) (A) (A) (A) (A) (A) (A) (A) (A) (A)
                 (A) (A) (A) (A) (A) (A) (A) (A) (A) (A) (A) (A)
                 (A) (A) (A) (A) (A) (A) (A) (A) (A) (A) (A) (A)
                 (A) (A) (A) (A) (A) (A) (A) (A) (A) (A) (A) (A)
                 (A) (A) (A) (A) (A) (A) (A) (A) (A) (A) (A) (A)
                 (A) (A) (A) (A) (A) (A) (A) (A) (A) (A) (A) (A)
                 (A) (A) (A) (A) (A) (A) (A) (A) (A) (A) (A) (A)
                 (A) (A) (A) (A) (A) (A) (A) (A) (A) (A) (A) (A)
                 (A) (A) (A) (A) (A) (A) (A) (A) (A) (A) (A) (A)
                 (A) (A) (A) (A) (A) (A) (A) (A) (A) (A) (A) (A)
                 (A) (A) (A) (A) (A) (A) (A) (A) (A) (A) (A) (A)
                 (A) (A) (A) (A) (A) (A) (A) (A) (A) (A) (A) (A)
                 (A) (A) (A) (A) (A) (A) (A) (A) (A) (A) (A) (A)
                 (A) (A) (A) (A) (A) (A) (A) (A) (A) (A) (A) (A)
                 (A) (A) (A) (A) (A) (A) (A) (A) (A) (A) (A) (A)
                 (A) (A) (A) (A) (A) (A) (A) (A) (A) (A) (A) (A)
                 (A) (A) (A) (A) (A) (A) (A) (A) (A) (A) (A) (A)
                 (A) (A) (A) (A) (A) (A) (A) (A) (A) (A) (A) (A)
                 (A) (A) (A) (A) (A) (A) (A) (A) (A) (A) (A) (A)
                 (A) (A) (A) (A) (A) (A) (A) (A) (A) (A) (A) (A)
                 (A) (A) (A) (A) (A) (A) (A) (A) (A) (A) (A) (A)
                 (A) (A) (A) (A) (A) (A) (A) (A) (A) (A) (A) (A)
                 (A) (A) (A) (A) (A) (A) (A) (A) (A) (A) (A)
 The electronic state is 1-A.
 Alpha  occ. eigenvalues -- -102.77500-102.77459-102.77440 -14.98111 -14.95519
 Alpha  occ. eigenvalues --  -14.89226 -10.79388 -10.74527 -10.74444 -10.74393
 Alpha  occ. eigenvalues --  -10.73765 -10.72729 -10.72530 -10.71137 -10.69513
 Alpha  occ. eigenvalues --  -10.69457 -10.68407 -10.68337 -10.68048 -10.67707
 Alpha  occ. eigenvalues --  -10.67500 -10.67491 -10.67465 -10.67449 -10.67418
 Alpha  occ. eigenvalues --  -10.66307 -10.65690 -10.65602 -10.65484 -10.65396
 Alpha  occ. eigenvalues --  -10.65373 -10.65176 -10.65105 -10.65041 -10.64870
 Alpha  occ. eigenvalues --  -10.63507 -10.63469 -10.63227 -10.63193 -10.63156
 Alpha  occ. eigenvalues --  -10.63115 -10.62984 -10.62946 -10.62738 -10.62699
 Alpha  occ. eigenvalues --   -9.92227  -9.92188  -9.92146  -7.64653  -7.64614
 Alpha  occ. eigenvalues --   -7.64576  -7.63950  -7.63911  -7.63910  -7.63872
 Alpha  occ. eigenvalues --   -7.63872  -7.63818  -1.31957  -1.20704  -1.17833
 Alpha  occ. eigenvalues --   -1.14515  -1.10508  -1.08843  -1.07718  -1.06716
 Alpha  occ. eigenvalues --   -1.05829  -1.04351  -1.04256  -1.03499  -1.02306
 Alpha  occ. eigenvalues --   -0.98476  -0.97172  -0.96713  -0.96439  -0.95933
 Alpha  occ. eigenvalues --   -0.95118  -0.93156  -0.93116  -0.92394  -0.92215
 Alpha  occ. eigenvalues --   -0.92128  -0.90545  -0.88862  -0.85198  -0.84304
 Alpha  occ. eigenvalues --   -0.81958  -0.81532  -0.81373  -0.80368  -0.79776
 Alpha  occ. eigenvalues --   -0.77964  -0.77380  -0.77000  -0.76831  -0.75173
 Alpha  occ. eigenvalues --   -0.74878  -0.74269  -0.72805  -0.71551  -0.70931
 Alpha  occ. eigenvalues --   -0.69925  -0.69279  -0.68886  -0.68131  -0.67417
 Alpha  occ. eigenvalues --   -0.67298  -0.65399  -0.64600  -0.64152  -0.63095
 Alpha  occ. eigenvalues --   -0.62789  -0.62416  -0.62196  -0.62031  -0.61744
 Alpha  occ. eigenvalues --   -0.61344  -0.60979  -0.60041  -0.59843  -0.59700
 Alpha  occ. eigenvalues --   -0.59220  -0.58924  -0.58727  -0.58515  -0.57962
 Alpha  occ. eigenvalues --   -0.57565  -0.57431  -0.57168  -0.56853  -0.56590
 Alpha  occ. eigenvalues --   -0.55586  -0.55504  -0.54363  -0.53898  -0.52927
 Alpha  occ. eigenvalues --   -0.52728  -0.52244  -0.51951  -0.51724  -0.51483
 Alpha  occ. eigenvalues --   -0.50913  -0.49941  -0.49901  -0.49844  -0.49476
 Alpha  occ. eigenvalues --   -0.49303  -0.48800  -0.48632  -0.48445  -0.48132
 Alpha  occ. eigenvalues --   -0.48070  -0.46220  -0.46015  -0.44316  -0.42325
 Alpha  occ. eigenvalues --   -0.41798  -0.41262  -0.40814  -0.40272  -0.39540
 Alpha  occ. eigenvalues --   -0.38530  -0.38178  -0.37522  -0.36766  -0.32780
 Alpha virt. eigenvalues --   -0.13871  -0.11713  -0.11279  -0.10803  -0.10216
 Alpha virt. eigenvalues --   -0.08107  -0.06631  -0.06293  -0.05810  -0.04818
 Alpha virt. eigenvalues --   -0.04679  -0.04049  -0.02862  -0.01680   0.00768
 Alpha virt. eigenvalues --    0.01467   0.02379   0.02678   0.03764   0.04721
 Alpha virt. eigenvalues --    0.05131   0.05842   0.06031   0.06565   0.06852
 Alpha virt. eigenvalues --    0.07483   0.07731   0.08553   0.09467   0.09869
 Alpha virt. eigenvalues --    0.10423   0.11187   0.11249   0.11281   0.11810
 Alpha virt. eigenvalues --    0.12267   0.12354   0.12760   0.12895   0.13120
 Alpha virt. eigenvalues --    0.13221   0.13863   0.14247   0.14623   0.14811
 Alpha virt. eigenvalues --    0.15348   0.16002   0.16069   0.16445   0.16544
 Alpha virt. eigenvalues --    0.16784   0.17143   0.17687   0.17808   0.18481
 Alpha virt. eigenvalues --    0.19303   0.20046   0.20438   0.20809   0.21984
 Alpha virt. eigenvalues --    0.22205   0.22992   0.23373   0.24164   0.24569
 Alpha virt. eigenvalues --    0.24651   0.25014   0.25295   0.26248   0.26875
 Alpha virt. eigenvalues --    0.27086   0.27176   0.27335   0.27555   0.28103
 Alpha virt. eigenvalues --    0.29379   0.30327   0.30593   0.30991   0.31295
 Alpha virt. eigenvalues --    0.32460   0.33485   0.33575   0.34279   0.34672
 Alpha virt. eigenvalues --    0.35138   0.35409   0.36249   0.36529   0.36852
 Alpha virt. eigenvalues --    0.37772   0.38403   0.39006   0.40252   0.40505
 Alpha virt. eigenvalues --    0.41763   0.41910   0.42032   0.43007   0.43489
 Alpha virt. eigenvalues --    0.43649   0.44238   0.44543   0.45252   0.45848
 Alpha virt. eigenvalues --    0.45929   0.46306   0.46777   0.47444   0.47557
 Alpha virt. eigenvalues --    0.47875   0.48151   0.48210   0.48346   0.48594
 Alpha virt. eigenvalues --    0.48888   0.49100   0.49778   0.50057   0.50279
 Alpha virt. eigenvalues --    0.50663   0.50991   0.51291   0.51766   0.52127
 Alpha virt. eigenvalues --    0.52443   0.52643   0.52849   0.53275   0.53380
 Alpha virt. eigenvalues --    0.53628   0.53928   0.54205   0.54989   0.55349
 Alpha virt. eigenvalues --    0.55498   0.55761   0.55833   0.56006   0.56233
 Alpha virt. eigenvalues --    0.56339   0.56474   0.56551   0.56844   0.57117
[...]
 Alpha  occ. eigenvalues --   -0.74622  -0.74111  -0.71337  -0.70933  -0.70836
 Alpha  occ. eigenvalues --   -0.69250  -0.69158  -0.68145  -0.68008  -0.67101
 Alpha  occ. eigenvalues --   -0.66718  -0.65314  -0.64508  -0.64043  -0.63022
 Alpha  occ. eigenvalues --   -0.62583  -0.62324  -0.62108  -0.61905  -0.61660
 Alpha  occ. eigenvalues --   -0.61176  -0.60864  -0.59945  -0.59711  -0.59527
 Alpha  occ. eigenvalues --   -0.59140  -0.58864  -0.58640  -0.58432  -0.57849
 Alpha  occ. eigenvalues --   -0.57473  -0.57316  -0.56989  -0.56719  -0.56512
 Alpha  occ. eigenvalues --   -0.55458  -0.55350  -0.54206  -0.53787  -0.52889
 Alpha  occ. eigenvalues --   -0.52672  -0.52162  -0.51871  -0.51578  -0.51337
 Alpha  occ. eigenvalues --   -0.50669  -0.49867  -0.49817  -0.49738  -0.49397
 Alpha  occ. eigenvalues --   -0.49189  -0.48700  -0.48531  -0.48328  -0.48053
 Alpha  occ. eigenvalues --   -0.47964  -0.46106  -0.45914  -0.44277  -0.42209
 Alpha  occ. eigenvalues --   -0.41697  -0.41157  -0.40677  -0.40170  -0.39462
 Alpha  occ. eigenvalues --   -0.38456  -0.38098  -0.37470  -0.36678  -0.32659
 Alpha virt. eigenvalues --   -0.13490  -0.11642  -0.11170  -0.10673  -0.10136
 Alpha virt. eigenvalues --   -0.08892  -0.07231  -0.06589  -0.06118  -0.05684
 Alpha virt. eigenvalues --   -0.04713  -0.04405  -0.03944  -0.02818  -0.01577
 Alpha virt. eigenvalues --    0.00879   0.02445   0.02771   0.03572   0.04743
 Alpha virt. eigenvalues --    0.04942   0.05768   0.06085   0.06405   0.06646
 Alpha virt. eigenvalues --    0.07396   0.07824   0.08420   0.09471   0.09973
 Alpha virt. eigenvalues --    0.10106   0.11225   0.11287   0.11352   0.11482
 Alpha virt. eigenvalues --    0.11971   0.12333   0.12435   0.12973   0.13144
 Alpha virt. eigenvalues --    0.13265   0.14000   0.14289   0.14534   0.14940
 Alpha virt. eigenvalues --    0.15379   0.15747   0.16083   0.16131   0.16658
 Alpha virt. eigenvalues --    0.16820   0.17127   0.17748   0.17778   0.18597
 Alpha virt. eigenvalues --    0.19270   0.20161   0.20530   0.20762   0.21905
 Alpha virt. eigenvalues --    0.22163   0.22699   0.23457   0.24213   0.24503
 Alpha virt. eigenvalues --    0.24719   0.24959   0.25373   0.26402   0.26944
 Alpha virt. eigenvalues --    0.27123   0.27208   0.27371   0.27638   0.28055
 Alpha virt. eigenvalues --    0.29458   0.29983   0.30704   0.30995   0.31320
 Alpha virt. eigenvalues --    0.32529   0.33483   0.33673   0.34381   0.34710
 Alpha virt. eigenvalues --    0.35200   0.35550   0.36339   0.36633   0.36948
 Alpha virt. eigenvalues --    0.37887   0.38433   0.39110   0.40285   0.40539
 Alpha virt. eigenvalues --    0.41963   0.42009   0.42131   0.42979   0.43231
 Alpha virt. eigenvalues --    0.43827   0.44159   0.44495   0.45274   0.45789
 Alpha virt. eigenvalues --    0.45983   0.46376   0.46672   0.47115   0.47632
 Alpha virt. eigenvalues --    0.47833   0.48088   0.48285   0.48360   0.48648
 Alpha virt. eigenvalues --    0.48875   0.49185   0.49713   0.50152   0.50330
 Alpha virt. eigenvalues --    0.50728   0.51113   0.51412   0.51512   0.52073
 Alpha virt. eigenvalues --    0.52379   0.52650   0.52850   0.53256   0.53415
 Alpha virt. eigenvalues --    0.53696   0.53967   0.54292   0.54838   0.55236
 Alpha virt. eigenvalues --    0.55686   0.55828   0.55931   0.55992   0.56303
 Alpha virt. eigenvalues --    0.56376   0.56544   0.56654   0.56858   0.57110
 Alpha virt. eigenvalues --    0.57258   0.57460   0.57597   0.57903   0.58018
 Alpha virt. eigenvalues --    0.58561   0.58600   0.58761   0.59134   0.59309
 Alpha virt. eigenvalues --    0.59483   0.59818   0.60244   0.60664   0.61180
 Alpha virt. eigenvalues --    0.61394   0.61613   0.62000   0.62181   0.62444
 Alpha virt. eigenvalues --    0.63422   0.63760   0.64207   0.65095   0.65194
 Alpha virt. eigenvalues --    0.65885   0.66042   0.66678   0.66916   0.67862
 Alpha virt. eigenvalues --    0.68136   0.69227   0.70132   0.70678   0.71712
 Alpha virt. eigenvalues --    0.72003   0.72228   0.72567   0.73906   0.74917
 Alpha virt. eigenvalues --    0.75158   0.75736   0.76036   0.76749   0.76914
 Alpha virt. eigenvalues --    0.77291   0.77609   0.77878   0.78554   0.79291
 Alpha virt. eigenvalues --    0.79372   0.79847   0.80134   0.80308   0.80531
 Alpha virt. eigenvalues --    0.81165   0.81557   0.81741   0.81981   0.82263
 Alpha virt. eigenvalues --    0.82349   0.82791   0.83053   0.83142   0.83340
 Alpha virt. eigenvalues --    0.83493   0.83696   0.83867   0.84039   0.84208
 Alpha virt. eigenvalues --    0.84346   0.85156   0.85383   0.85894   0.85989
 Alpha virt. eigenvalues --    0.86972   0.87113   0.87444   0.87481   0.87927
 Alpha virt. eigenvalues --    0.88524   0.89162   0.89289   0.89988   0.90231
 Alpha virt. eigenvalues --    0.90930   0.91522   0.91642   0.92809   0.93166
 Alpha virt. eigenvalues --    0.93197   0.93904   0.94141   0.94533   0.94837
 Alpha virt. eigenvalues --    0.95720   0.95921   0.96998   0.97347   0.97565
 Alpha virt. eigenvalues --    0.98228   0.98948   0.99129   0.99356   1.00101
 Alpha virt. eigenvalues --    1.01232   1.02071   1.02702   1.02910   1.03996
 Alpha virt. eigenvalues --    1.04524   1.05306   1.05932   1.06090   1.06630
 Alpha virt. eigenvalues --    1.06965   1.08638   1.08823   1.09423   1.10313
 Alpha virt. eigenvalues --    1.10401   1.10804   1.11180   1.11517   1.12715
 Alpha virt. eigenvalues --    1.12907   1.13187   1.14212   1.14513   1.14885
 Alpha virt. eigenvalues --    1.15160   1.15299   1.16462   1.16619   1.17452
 Alpha virt. eigenvalues --    1.17964   1.18385   1.18720   1.18956   1.19655
 Alpha virt. eigenvalues --    1.20214   1.20492   1.22160   1.23586   1.23951
 Alpha virt. eigenvalues --    1.24581   1.25141   1.25939   1.28008   1.28147
 Alpha virt. eigenvalues --    1.28789   1.30763   1.31170   1.31320   1.31531
 Alpha virt. eigenvalues --    1.31726   1.32517   1.32950   1.33610   1.34041
 Alpha virt. eigenvalues --    1.34538   1.34597   1.35672   1.36691   1.36751
 Alpha virt. eigenvalues --    1.37044   1.37131   1.37281   1.37519   1.38028
 Alpha virt. eigenvalues --    1.38046   1.38159   1.38578   1.38834   1.39417
 Alpha virt. eigenvalues --    1.39606   1.39996   1.40217   1.40547   1.40677
 Alpha virt. eigenvalues --    1.41292   1.41689   1.42861   1.43253   1.43509
 Alpha virt. eigenvalues --    1.43766   1.44841   1.46996   1.47954   1.48150
 Alpha virt. eigenvalues --    1.49900   1.50095   1.50716   1.53647   1.57354
 Alpha virt. eigenvalues --    1.58107   1.61239   1.61980   1.63221   1.64194
 Alpha virt. eigenvalues --    1.65934   1.66564   1.66903   1.67592   1.68858
 Alpha virt. eigenvalues --    1.69264   1.69772   1.70526   1.70887   1.71998
 Alpha virt. eigenvalues --    1.72310   1.72937   1.73227   1.74271   1.74828
 Alpha virt. eigenvalues --    1.75983   1.76978   1.77419   1.77504   1.77843
 Alpha virt. eigenvalues --    1.78344   1.79260   1.79394   1.80086   1.81752
 Alpha virt. eigenvalues --    1.82011   1.82300   1.82503   1.83100   1.83765
 Alpha virt. eigenvalues --    1.84072   1.85023   1.85242   1.85537   1.85705
 Alpha virt. eigenvalues --    1.86017   1.86426   1.87319   1.88008   1.88445
 Alpha virt. eigenvalues --    1.88801   1.89066   1.89188   1.90058   1.90331
 Alpha virt. eigenvalues --    1.90637   1.91090   1.91353   1.91714   1.92619
 Alpha virt. eigenvalues --    1.92883   1.93718   1.94034   1.94530   1.94664
 Alpha virt. eigenvalues --    1.94972   1.95395   1.95455   1.95767   1.96093
 Alpha virt. eigenvalues --    1.96341   1.97100   1.97292   1.97769   1.97774
 Alpha virt. eigenvalues --    1.98918   1.99384   2.00032   2.00621   2.00759
 Alpha virt. eigenvalues --    2.01654   2.02654   2.03524   2.03880   2.04415
 Alpha virt. eigenvalues --    2.05380   2.05656   2.05922   2.07202   2.08418
 Alpha virt. eigenvalues --    2.09667   2.10197   2.11323   2.13016   2.13266
 Alpha virt. eigenvalues --    2.14414   2.15089   2.15787   2.16076   2.16253
 Alpha virt. eigenvalues --    2.17833   2.17858   2.18736   2.19332   2.19922
 Alpha virt. eigenvalues --    2.21303   2.22517   2.23001   2.23713   2.23929
 Alpha virt. eigenvalues --    2.24320   2.24899   2.25158   2.25256   2.25451
 Alpha virt. eigenvalues --    2.26270   2.27279   2.28420   2.28636   2.29091
 Alpha virt. eigenvalues --    2.30409   2.30999   2.31356   2.31580   2.32087
 Alpha virt. eigenvalues --    2.32305   2.32864   2.33100   2.33329   2.33468
 Alpha virt. eigenvalues --    2.33506   2.34015   2.34351   2.34859   2.35596
 Alpha virt. eigenvalues --    2.35863   2.36158   2.36332   2.36635   2.37633
 Alpha virt. eigenvalues --    2.38110   2.38746   2.39301   2.39656   2.39753
 Alpha virt. eigenvalues --    2.40166   2.40389   2.40996   2.41192   2.41770
 Alpha virt. eigenvalues --    2.42138   2.42462   2.43409   2.43853   2.44498
 Alpha virt. eigenvalues --    2.44752   2.45242   2.45933   2.46112   2.46661
 Alpha virt. eigenvalues --    2.47127   2.47677   2.48167   2.48574   2.48982
 Alpha virt. eigenvalues --    2.49173   2.49790   2.50744   2.51081   2.51123
 Alpha virt. eigenvalues --    2.51637   2.52732   2.53066   2.53533   2.54031
 Alpha virt. eigenvalues --    2.54432   2.54597   2.54744   2.55425   2.55724
 Alpha virt. eigenvalues --    2.56938   2.57897   2.57984   2.58416   2.59855
 Alpha virt. eigenvalues --    2.60092   2.60953   2.61948   2.62136   2.62277
 Alpha virt. eigenvalues --    2.63836   2.63928   2.64908   2.65627   2.66122
 Alpha virt. eigenvalues --    2.66651   2.68041   2.68326   2.69099   2.69567
 Alpha virt. eigenvalues --    2.70198   2.71409   2.72034   2.72742   2.73051
 Alpha virt. eigenvalues --    2.74377   2.74797   2.75201   2.76696   2.77816
 Alpha virt. eigenvalues --    2.79357   2.79959   2.83143   2.83750   2.85671
 Alpha virt. eigenvalues --    2.88076   2.88228   2.89045   2.89701   2.92562
 Alpha virt. eigenvalues --    2.95528   2.96375   2.98257   2.98762   2.99106
 Alpha virt. eigenvalues --    3.02541   3.02918   3.06568   3.07976   3.08156
 Alpha virt. eigenvalues --    3.09208   3.11761   3.12121   3.13709   3.14193
 Alpha virt. eigenvalues --    3.14502   3.15056   3.15380   3.15426   3.16106
 Alpha virt. eigenvalues --    3.16233   3.16706   3.16886   3.16908   3.20340
 Alpha virt. eigenvalues --    3.22018   3.24863   3.25418   3.26351   3.27826
 Alpha virt. eigenvalues --    3.30887   3.32000   3.33419   3.34157   3.36272
 Alpha virt. eigenvalues --    3.38124   3.39191   3.41106   3.42296   3.43460
 Alpha virt. eigenvalues --    3.44053   3.50931   3.71261   3.72340   3.79563
 Alpha virt. eigenvalues --    3.81487   3.82534   3.93743   3.98124   3.99688
 Alpha virt. eigenvalues --    4.01632   4.04141   4.05243   4.06928   4.07871
 Alpha virt. eigenvalues --    4.08418   4.08511   4.08724   4.08894   4.09914
 Alpha virt. eigenvalues --    4.10880   4.11369   4.12563   4.17356   4.18461
 Alpha virt. eigenvalues --    4.19170   4.20590   4.24013   4.24964   4.25959
 Alpha virt. eigenvalues --    4.26346   4.27349   4.30042   4.31716   4.34887
 Alpha virt. eigenvalues --    4.35918   4.36901   4.37927   4.39258   4.41239
 Alpha virt. eigenvalues --    4.41445   4.42004   4.42346   4.43894   4.51802
 Alpha virt. eigenvalues --    4.55078   4.68613   4.69455   4.76504   4.78136
 Alpha virt. eigenvalues --    4.81293   4.90465
          Condensed to atoms (all electrons):
 Mulliken charges:
               1
     1  C    0.117282
     2  C    0.039952
     3  C    0.040783
     4  C    0.118138
     5  C   -0.155126
     6  C   -0.116574
     7  C   -0.127358
     8  C   -0.125331
     9  C   -0.121612
    10  C   -0.130071
    11  C   -0.116110
    12  C   -0.157434
    13  C    0.211806
    14  C    0.225354
    15  N   -0.738733
    16  C    0.543041
    17  N   -0.689457
    18  C    0.107623
    19  C   -0.066185
    20  C   -0.135592
    21  C   -0.099965
    22  C   -0.140583
    23  C   -0.034842
    24  C    0.035358
    25  C   -0.106550
    26  C   -0.152894
    27  C    0.306949
    28  C   -0.144951
    29  C   -0.149861
    30  N   -0.644007
    31  C    0.172872
    32  C    0.175198
    33  C   -0.103757
    34  C   -0.131978
    35  C   -0.112149
    36  C   -0.130665
    37  C   -0.116277
    38  C   -0.103680
    39  C   -0.132211
    40  C   -0.112310
    41  C   -0.130957
    42  C   -0.116298
    43  Cl   0.101689
    44  Cl   0.131639
    45  Cl   0.102938
    46  H    0.148509
    47  H    0.156414
    48  H    0.155101
    49  H    0.107424
    50  H    0.129501
    51  H    0.153930
    52  H    0.155653
    53  H    0.145565
    54  H    0.370137
    55  H    0.186418
    56  H    0.183231
    57  H    0.138169
    58  H    0.164965
    59  H    0.163765
    60  H    0.133559
    61  H    0.143091
    62  H    0.146766
    63  H    0.144359
    64  H    0.142428
    65  H    0.133082
    66  H    0.143039
    67  H    0.146721
    68  H    0.144394
    69  H    0.142601
    70  H    0.134076
 Sum of Mulliken charges =   1.00000
 Mulliken charges with hydrogens summed into heavy atoms:
               1
     1  C    0.117282
     2  C    0.039952
     3  C    0.040783
     4  C    0.118138
     5  C   -0.006617
     6  C    0.039839
     7  C    0.027744
     8  C   -0.017907
     9  C    0.007889
    10  C    0.023860
    11  C    0.039544
    12  C   -0.011870
    13  C    0.211806
    14  C    0.225354
    15  N   -0.368596
    16  C    0.543041
    17  N   -0.689457
    18  C    0.107623
    19  C    0.120233
    20  C   -0.135592
    21  C   -0.099965
    22  C   -0.140583
    23  C    0.148389
    24  C    0.035358
    25  C    0.031620
    26  C    0.012071
    27  C    0.306949
    28  C    0.018814
    29  C   -0.016303
    30  N   -0.644007
    31  C    0.172872
    32  C    0.175198
    33  C    0.039334
    34  C    0.014788
    35  C    0.032210
    36  C    0.011763
    37  C    0.016805
    38  C    0.039359
    39  C    0.014510
    40  C    0.032085
    41  C    0.011644
    42  C    0.017778
    43  Cl   0.101689
    44  Cl   0.131639
    45  Cl   0.102938
 Electronic spatial extent (au):  <R**2>=          34998.3434
 Charge=              1.0000 electrons
 Dipole moment (field-independent basis, Debye):
    X=              3.0159    Y=             -6.5114    Z=             -0.9185  Tot=              7.2344
 Quadrupole moment (field-independent basis, Debye-Ang):
   XX=           -150.5890   YY=           -218.7705   ZZ=           -258.9612
   XY=            -10.6087   XZ=             -1.7069   YZ=             -0.5112
 Traceless Quadrupole moment (field-independent basis, Debye-Ang):
   XX=             58.8512   YY=             -9.3303   ZZ=            -49.5210
   XY=            -10.6087   XZ=             -1.7069   YZ=             -0.5112
 Octapole moment (field-independent basis, Debye-Ang**2):
  XXX=            122.2187  YYY=           -119.4550  ZZZ=              5.5613  XYY=             85.1790
  XXY=           -142.6871  XXZ=            -12.5412  XZZ=           -106.5904  YZZ=             28.2408
  YYZ=            -17.3122  XYZ=             80.2910
 Hexadecapole moment (field-independent basis, Debye-Ang**3):
 XXXX=         -25216.0740 YYYY=         -11072.0771 ZZZZ=          -3168.4664 XXXY=           -363.9608
 XXXZ=            -30.4263 YYYX=           -540.1106 YYYZ=            177.8847 ZZZX=             13.3457
 ZZZY=           -111.2269 XXYY=          -5863.8117 XXZZ=          -5571.0113 YYZZ=          -2580.9696
 XXYZ=           -179.5693 YYXZ=           -229.9669 ZZXY=            123.6332
 N-N= 5.537350331097D+03 E-N=-1.817853550183D+04  KE= 3.026893010407D+03
 No NMR shielding tensors so no spin-rotation constants.
 Leave Link  601 at Mon May 18 06:06:21 2026, MaxMem=  2684354560 cpu:               1.6 elap:               0.2
 (Enter /home/aced/g16/l9999.exe)
 1\1\GINC-ACED\Scan\RM062X\6-31G(d,p)\C39H25Cl3N3(1+)\ACED\18-May-2026\
 0\\#p opt=modredundant 6-31g(d,p) geom=connectivity m062x\\Title Card 
 Required\\1,1\C,-4.4942364282,-0.3702031331,-0.0972954913\C,-5.5770059
 812,-1.2796917987,0.0766697593\C,-5.3485143476,-2.7024961383,0.3642343
 544\C,-4.0332637044,-3.2202400684,0.4423543478\C,-6.4052649994,-3.6160
 918893,0.5557506076\C,-6.1674805949,-4.9539571662,0.7977767573\C,-4.85
 66765296,-5.4487917144,0.8587442061\C,-3.7983532465,-4.5846748469,0.68
 3383472\C,-4.7492777152,0.9733058727,-0.4387051725\C,-6.0432750623,1.4
 297883111,-0.5730022295\C,-7.1167369572,0.5539074133,-0.3748506936\C,-
 6.8825124381,-0.7696860169,-0.0653345117\C,-2.976264933,-2.2705608204,
 0.2827687084\C,-3.1751641944,-0.9285994919,0.0649762549\N,-1.612073414
 4,-2.4591254159,0.3404753961\C,-0.9559256189,-1.301227229,0.1869465232
 \N,-1.901468369,-0.3445442538,0.0181794282\C,-1.5986950743,1.044639746
 1,-0.1741302677\C,-1.8329419664,1.9298783918,0.8697817007\C,-1.5412336
 401,3.2766343739,0.6860895037\C,-1.0076802487,3.736355135,-0.529060426
 1\C,-0.7773071414,2.8120847704,-1.5586687693\C,-1.0755682132,1.4633337
 026,-1.3867788594\C,0.488626824,-1.1693342604,0.1812575742\C,1.1578611
 205,-0.0714433909,0.749479942\C,2.5349908629,-0.013322663,0.7641119747
 \C,3.3153780832,-1.0515737753,0.2027927788\C,2.6378047111,-2.152142357
 3,-0.3723039879\C,1.260362429,-2.2041323493,-0.3759490853\N,4.68926633
 06,-0.9917276253,0.2130966396\C,5.4801364833,-1.8043177557,-0.66114980
 57\C,5.3948612307,-0.1151842723,1.0984194861\C,6.3574499842,0.75102456
 ,0.581340597\C,7.0695505169,1.5799128738,1.4417744732\C,6.8183388697,1
 .5532705594,2.8115770178\C,5.8574413265,0.684242643,3.3235494405\C,5.1
 510437373,-0.1587775013,2.4720772497\C,6.4983821301,-2.5939963175,-0.1
 283325832\C,7.2907694866,-3.3591870321,-0.9776107956\C,7.0647869141,-3
 .3453082853,-2.3520162405\C,6.0479845581,-2.5525615994,-2.8797430093\C
 ,5.2602022206,-1.7729674923,-2.0391675275\Cl,-0.1233312481,3.320320515
 3,-3.0691125941\Cl,-0.6448959158,5.3971454229,-0.7488724484\Cl,-1.8459
 119969,4.3678306284,1.9843617799\H,-7.4327658527,-3.278541572,0.517825
 9154\H,-7.0046922872,-5.62803818,0.9409202656\H,-4.6778315354,-6.50169
 54019,1.0450208453\H,-2.7820357647,-4.9654239662,0.7314781293\H,-3.931
 7463538,1.6582507249,-0.6170593768\H,-6.2242958195,2.4653865407,-0.838
 2986425\H,-8.135753754,0.9099930036,-0.4776841914\H,-7.7348708341,-1.4
 247399956,0.0586872102\H,-1.0254315187,-3.5084634614,0.625433619\H,-2.
 248628896,1.5852673429,1.8103141388\H,-0.8974205033,0.7595189904,-2.19
 14692681\H,0.598077339,0.7405133786,1.2004322466\H,3.0275844093,0.8426
 056282,1.2084840572\H,3.2072252225,-2.9601808729,-0.8144291438\H,0.773
 2381143,-3.0513164559,-0.8521183983\H,6.5449969471,0.7612331167,-0.487
 7966694\H,7.8197308639,2.2517627217,1.0388371831\H,7.3741441104,2.2027
 627107,3.4788939947\H,5.6679238833,0.6492877186,4.3910938355\H,4.41353
 70273,-0.8537801457,2.8625796122\H,6.6656047989,-2.5940749346,0.944243
 7977\H,8.0843613938,-3.9711909773,-0.5626151394\H,7.6836164221,-3.9447
 802589,-3.0106499925\H,5.87755019,-2.5266974651,-3.950769144\H,4.47779
 53573,-1.1360644482,-2.441255639\\Version=ES64L-G16RevA.03\State=1-A\H
 F=-3045.1143752,-3045.1295461,-3045.1415647,-3045.1508759,-3045.157862
 5,-3045.1628545,-3045.1661361,-3045.1679526,-3045.168516,-3045.1680085
 ,-3045.166589,-3045.1643927,-3045.1615388,-3045.1581292,-3045.1542517,
 -3045.1499845,-3045.1453934,-3045.1405358\RMSD=7.116e-09,7.873e-09,7.8
 72e-09,7.894e-09,7.869e-09,8.084e-09,7.946e-09,8.097e-09,7.903e-09,7.9
 91e-09,7.716e-09,7.739e-09,6.076e-09,5.789e-09,6.037e-09,5.479e-09,5.4
 69e-09,5.679e-09\PG=C01 [X(C39H25Cl3N3)]\\@


 SIC AS THE CAWSE OF EWERY THING IS, SIC WILBE THE EFFECT.
 -- PROVERBS AND REASONS OF THE YEAR 1585
           AS REPRINTED IN PAISLEY MAGAZINE 1828.
 Job cpu time:       0 days 17 hours 55 minutes 34.8 seconds.
 Elapsed time:       0 days  2 hours 15 minutes 14.2 seconds.
 File lengths (MBytes):  RWF=    432 Int=      0 D2E=      0 Chk=     74 Scr=      1
 Normal termination of Gaussian 16 at Mon May 18 06:06:21 2026.
